LAMMPS data file. msi2lmp v3.9.9 / 05 Nov 2018 / CGCMM for water_box_2

   6880 atoms
   5120 bonds
   4000 angles


   3 atom types
   2 bond types
   2 angle types


     0.274177364    39.794177364 xlo xhi
    -0.291703671    42.489996329 ylo yhi
    -0.380005672    90.115694328 zlo zhi

Masses

   1  12.011150 # c
   2  15.999400 # o*
   3   1.007970 # h*

Atoms # full

      1      1   1  0.000000    39.520000000     0.000000000     1.700000048  -1   0   0 # c
      2      1   1  0.000000    39.520000000     4.278165495     1.700000048  -1   0   0 # c
      3      1   1  0.000000    39.520000000     8.556330989     1.700000048  -1   0   0 # c
      4      1   1  0.000000    39.520000000    12.834496484     1.700000048  -1   0   0 # c
      5      1   1  0.000000    39.520000000    17.112661979     1.700000048  -1   0   0 # c
      6      1   1  0.000000     2.470000000     0.000000000     1.700000048   0   0   0 # c
      7      1   1  0.000000     2.470000000     4.278165495     1.700000048   0   0   0 # c
      8      1   1  0.000000     2.470000000     8.556330989     1.700000048   0   0   0 # c
      9      1   1  0.000000     2.470000000    12.834496484     1.700000048   0   0   0 # c
     10      1   1  0.000000     2.470000000    17.112661979     1.700000048   0   0   0 # c
     11      1   1  0.000000     4.940000000     0.000000000     1.700000048   0   0   0 # c
     12      1   1  0.000000     4.940000000     4.278165495     1.700000048   0   0   0 # c
     13      1   1  0.000000     4.940000000     8.556330989     1.700000048   0   0   0 # c
     14      1   1  0.000000     4.940000000    12.834496484     1.700000048   0   0   0 # c
     15      1   1  0.000000     4.940000000    17.112661979     1.700000048   0   0   0 # c
     16      1   1  0.000000     7.410000000     0.000000000     1.700000048   0   0   0 # c
     17      1   1  0.000000     7.410000000     4.278165495     1.700000048   0   0   0 # c
     18      1   1  0.000000     7.410000000     8.556330989     1.700000048   0   0   0 # c
     19      1   1  0.000000     7.410000000    12.834496484     1.700000048   0   0   0 # c
     20      1   1  0.000000     7.410000000    17.112661979     1.700000048   0   0   0 # c
     21      1   1  0.000000     9.880000000     0.000000000     1.700000048   0   0   0 # c
     22      1   1  0.000000     9.880000000     4.278165495     1.700000048   0   0   0 # c
     23      1   1  0.000000     9.880000000     8.556330989     1.700000048   0   0   0 # c
     24      1   1  0.000000     9.880000000    12.834496484     1.700000048   0   0   0 # c
     25      1   1  0.000000     9.880000000    17.112661979     1.700000048   0   0   0 # c
     26      1   1  0.000000    12.350000000     0.000000000     1.700000048   0   0   0 # c
     27      1   1  0.000000    12.350000000     4.278165495     1.700000048   0   0   0 # c
     28      1   1  0.000000    12.350000000     8.556330989     1.700000048   0   0   0 # c
     29      1   1  0.000000    12.350000000    12.834496484     1.700000048   0   0   0 # c
     30      1   1  0.000000    12.350000000    17.112661979     1.700000048   0   0   0 # c
     31      1   1  0.000000    14.820000000     0.000000000     1.700000048   0   0   0 # c
     32      1   1  0.000000    14.820000000     4.278165495     1.700000048   0   0   0 # c
     33      1   1  0.000000    14.820000000     8.556330989     1.700000048   0   0   0 # c
     34      1   1  0.000000    14.820000000    12.834496484     1.700000048   0   0   0 # c
     35      1   1  0.000000    14.820000000    17.112661979     1.700000048   0   0   0 # c
     36      1   1  0.000000    17.290000000     0.000000000     1.700000048   0   0   0 # c
     37      1   1  0.000000    17.290000000     4.278165495     1.700000048   0   0   0 # c
     38      1   1  0.000000    17.290000000     8.556330989     1.700000048   0   0   0 # c
     39      1   1  0.000000    17.290000000    12.834496484     1.700000048   0   0   0 # c
     40      1   1  0.000000    17.290000000    17.112661979     1.700000048   0   0   0 # c
     41      1   1  0.000000     1.235000000     2.139082747     1.700000048   0   0   0 # c
     42      1   1  0.000000     1.235000000     6.417248242     1.700000048   0   0   0 # c
     43      1   1  0.000000     1.235000000    10.695413737     1.700000048   0   0   0 # c
     44      1   1  0.000000     1.235000000    14.973579231     1.700000048   0   0   0 # c
     45      1   1  0.000000     1.235000000    19.251744726     1.700000048   0   0   0 # c
     46      1   1  0.000000     3.705000000     2.139082747     1.700000048   0   0   0 # c
     47      1   1  0.000000     3.705000000     6.417248242     1.700000048   0   0   0 # c
     48      1   1  0.000000     3.705000000    10.695413737     1.700000048   0   0   0 # c
     49      1   1  0.000000     3.705000000    14.973579231     1.700000048   0   0   0 # c
     50      1   1  0.000000     3.705000000    19.251744726     1.700000048   0   0   0 # c
     51      1   1  0.000000     6.175000000     2.139082747     1.700000048   0   0   0 # c
     52      1   1  0.000000     6.175000000     6.417248242     1.700000048   0   0   0 # c
     53      1   1  0.000000     6.175000000    10.695413737     1.700000048   0   0   0 # c
     54      1   1  0.000000     6.175000000    14.973579231     1.700000048   0   0   0 # c
     55      1   1  0.000000     6.175000000    19.251744726     1.700000048   0   0   0 # c
     56      1   1  0.000000     8.645000000     2.139082747     1.700000048   0   0   0 # c
     57      1   1  0.000000     8.645000000     6.417248242     1.700000048   0   0   0 # c
     58      1   1  0.000000     8.645000000    10.695413737     1.700000048   0   0   0 # c
     59      1   1  0.000000     8.645000000    14.973579231     1.700000048   0   0   0 # c
     60      1   1  0.000000     8.645000000    19.251744726     1.700000048   0   0   0 # c
     61      1   1  0.000000    11.115000000     2.139082747     1.700000048   0   0   0 # c
     62      1   1  0.000000    11.115000000     6.417248242     1.700000048   0   0   0 # c
     63      1   1  0.000000    11.115000000    10.695413737     1.700000048   0   0   0 # c
     64      1   1  0.000000    11.115000000    14.973579231     1.700000048   0   0   0 # c
     65      1   1  0.000000    11.115000000    19.251744726     1.700000048   0   0   0 # c
     66      1   1  0.000000    13.585000000     2.139082747     1.700000048   0   0   0 # c
     67      1   1  0.000000    13.585000000     6.417248242     1.700000048   0   0   0 # c
     68      1   1  0.000000    13.585000000    10.695413737     1.700000048   0   0   0 # c
     69      1   1  0.000000    13.585000000    14.973579231     1.700000048   0   0   0 # c
     70      1   1  0.000000    13.585000000    19.251744726     1.700000048   0   0   0 # c
     71      1   1  0.000000    16.055000000     2.139082747     1.700000048   0   0   0 # c
     72      1   1  0.000000    16.055000000     6.417248242     1.700000048   0   0   0 # c
     73      1   1  0.000000    16.055000000    10.695413737     1.700000048   0   0   0 # c
     74      1   1  0.000000    16.055000000    14.973579231     1.700000048   0   0   0 # c
     75      1   1  0.000000    16.055000000    19.251744726     1.700000048   0   0   0 # c
     76      1   1  0.000000    18.525000000     2.139082747     1.700000048   0   0   0 # c
     77      1   1  0.000000    18.525000000     6.417248242     1.700000048   0   0   0 # c
     78      1   1  0.000000    18.525000000    10.695413737     1.700000048   0   0   0 # c
     79      1   1  0.000000    18.525000000    14.973579231     1.700000048   0   0   0 # c
     80      1   1  0.000000    18.525000000    19.251744726     1.700000048   0   0   0 # c
     81      1   1  0.000000    39.520000000     1.426055165     1.700000048  -1   0   0 # c
     82      1   1  0.000000    39.520000000     5.704220660     1.700000048  -1   0   0 # c
     83      1   1  0.000000    39.520000000     9.982386154     1.700000048  -1   0   0 # c
     84      1   1  0.000000    39.520000000    14.260551649     1.700000048  -1   0   0 # c
     85      1   1  0.000000    39.520000000    18.538717144     1.700000048  -1   0   0 # c
     86      1   1  0.000000     2.470000000     1.426055165     1.700000048   0   0   0 # c
     87      1   1  0.000000     2.470000000     5.704220660     1.700000048   0   0   0 # c
     88      1   1  0.000000     2.470000000     9.982386154     1.700000048   0   0   0 # c
     89      1   1  0.000000     2.470000000    14.260551649     1.700000048   0   0   0 # c
     90      1   1  0.000000     2.470000000    18.538717144     1.700000048   0   0   0 # c
     91      1   1  0.000000     4.940000000     1.426055165     1.700000048   0   0   0 # c
     92      1   1  0.000000     4.940000000     5.704220660     1.700000048   0   0   0 # c
     93      1   1  0.000000     4.940000000     9.982386154     1.700000048   0   0   0 # c
     94      1   1  0.000000     4.940000000    14.260551649     1.700000048   0   0   0 # c
     95      1   1  0.000000     4.940000000    18.538717144     1.700000048   0   0   0 # c
     96      1   1  0.000000     7.410000000     1.426055165     1.700000048   0   0   0 # c
     97      1   1  0.000000     7.410000000     5.704220660     1.700000048   0   0   0 # c
     98      1   1  0.000000     7.410000000     9.982386154     1.700000048   0   0   0 # c
     99      1   1  0.000000     7.410000000    14.260551649     1.700000048   0   0   0 # c
    100      1   1  0.000000     7.410000000    18.538717144     1.700000048   0   0   0 # c
    101      1   1  0.000000     9.880000000     1.426055165     1.700000048   0   0   0 # c
    102      1   1  0.000000     9.880000000     5.704220660     1.700000048   0   0   0 # c
    103      1   1  0.000000     9.880000000     9.982386154     1.700000048   0   0   0 # c
    104      1   1  0.000000     9.880000000    14.260551649     1.700000048   0   0   0 # c
    105      1   1  0.000000     9.880000000    18.538717144     1.700000048   0   0   0 # c
    106      1   1  0.000000    12.350000000     1.426055165     1.700000048   0   0   0 # c
    107      1   1  0.000000    12.350000000     5.704220660     1.700000048   0   0   0 # c
    108      1   1  0.000000    12.350000000     9.982386154     1.700000048   0   0   0 # c
    109      1   1  0.000000    12.350000000    14.260551649     1.700000048   0   0   0 # c
    110      1   1  0.000000    12.350000000    18.538717144     1.700000048   0   0   0 # c
    111      1   1  0.000000    14.820000000     1.426055165     1.700000048   0   0   0 # c
    112      1   1  0.000000    14.820000000     5.704220660     1.700000048   0   0   0 # c
    113      1   1  0.000000    14.820000000     9.982386154     1.700000048   0   0   0 # c
    114      1   1  0.000000    14.820000000    14.260551649     1.700000048   0   0   0 # c
    115      1   1  0.000000    14.820000000    18.538717144     1.700000048   0   0   0 # c
    116      1   1  0.000000    17.290000000     1.426055165     1.700000048   0   0   0 # c
    117      1   1  0.000000    17.290000000     5.704220660     1.700000048   0   0   0 # c
    118      1   1  0.000000    17.290000000     9.982386154     1.700000048   0   0   0 # c
    119      1   1  0.000000    17.290000000    14.260551649     1.700000048   0   0   0 # c
    120      1   1  0.000000    17.290000000    18.538717144     1.700000048   0   0   0 # c
    121      1   1  0.000000     1.235000000     3.565137912     1.700000048   0   0   0 # c
    122      1   1  0.000000     1.235000000     7.843303407     1.700000048   0   0   0 # c
    123      1   1  0.000000     1.235000000    12.121468902     1.700000048   0   0   0 # c
    124      1   1  0.000000     1.235000000    16.399634396     1.700000048   0   0   0 # c
    125      1   1  0.000000     1.235000000    20.677799891     1.700000048   0   0   0 # c
    126      1   1  0.000000     3.705000000     3.565137912     1.700000048   0   0   0 # c
    127      1   1  0.000000     3.705000000     7.843303407     1.700000048   0   0   0 # c
    128      1   1  0.000000     3.705000000    12.121468902     1.700000048   0   0   0 # c
    129      1   1  0.000000     3.705000000    16.399634396     1.700000048   0   0   0 # c
    130      1   1  0.000000     3.705000000    20.677799891     1.700000048   0   0   0 # c
    131      1   1  0.000000     6.175000000     3.565137912     1.700000048   0   0   0 # c
    132      1   1  0.000000     6.175000000     7.843303407     1.700000048   0   0   0 # c
    133      1   1  0.000000     6.175000000    12.121468902     1.700000048   0   0   0 # c
    134      1   1  0.000000     6.175000000    16.399634396     1.700000048   0   0   0 # c
    135      1   1  0.000000     6.175000000    20.677799891     1.700000048   0   0   0 # c
    136      1   1  0.000000     8.645000000     3.565137912     1.700000048   0   0   0 # c
    137      1   1  0.000000     8.645000000     7.843303407     1.700000048   0   0   0 # c
    138      1   1  0.000000     8.645000000    12.121468902     1.700000048   0   0   0 # c
    139      1   1  0.000000     8.645000000    16.399634396     1.700000048   0   0   0 # c
    140      1   1  0.000000     8.645000000    20.677799891     1.700000048   0   0   0 # c
    141      1   1  0.000000    11.115000000     3.565137912     1.700000048   0   0   0 # c
    142      1   1  0.000000    11.115000000     7.843303407     1.700000048   0   0   0 # c
    143      1   1  0.000000    11.115000000    12.121468902     1.700000048   0   0   0 # c
    144      1   1  0.000000    11.115000000    16.399634396     1.700000048   0   0   0 # c
    145      1   1  0.000000    11.115000000    20.677799891     1.700000048   0   0   0 # c
    146      1   1  0.000000    13.585000000     3.565137912     1.700000048   0   0   0 # c
    147      1   1  0.000000    13.585000000     7.843303407     1.700000048   0   0   0 # c
    148      1   1  0.000000    13.585000000    12.121468902     1.700000048   0   0   0 # c
    149      1   1  0.000000    13.585000000    16.399634396     1.700000048   0   0   0 # c
    150      1   1  0.000000    13.585000000    20.677799891     1.700000048   0   0   0 # c
    151      1   1  0.000000    16.055000000     3.565137912     1.700000048   0   0   0 # c
    152      1   1  0.000000    16.055000000     7.843303407     1.700000048   0   0   0 # c
    153      1   1  0.000000    16.055000000    12.121468902     1.700000048   0   0   0 # c
    154      1   1  0.000000    16.055000000    16.399634396     1.700000048   0   0   0 # c
    155      1   1  0.000000    16.055000000    20.677799891     1.700000048   0   0   0 # c
    156      1   1  0.000000    18.525000000     3.565137912     1.700000048   0   0   0 # c
    157      1   1  0.000000    18.525000000     7.843303407     1.700000048   0   0   0 # c
    158      1   1  0.000000    18.525000000    12.121468902     1.700000048   0   0   0 # c
    159      1   1  0.000000    18.525000000    16.399634396     1.700000048   0   0   0 # c
    160      1   1  0.000000    18.525000000    20.677799891     1.700000048   0   0   0 # c
    161      1   1  0.000000    19.760000000     0.000000000     1.700000048   0   0   0 # c
    162      1   1  0.000000    19.760000000     4.278165495     1.700000048   0   0   0 # c
    163      1   1  0.000000    19.760000000     8.556330989     1.700000048   0   0   0 # c
    164      1   1  0.000000    19.760000000    12.834496484     1.700000048   0   0   0 # c
    165      1   1  0.000000    19.760000000    17.112661979     1.700000048   0   0   0 # c
    166      1   1  0.000000    22.230000000     0.000000000     1.700000048   0   0   0 # c
    167      1   1  0.000000    22.230000000     4.278165495     1.700000048   0   0   0 # c
    168      1   1  0.000000    22.230000000     8.556330989     1.700000048   0   0   0 # c
    169      1   1  0.000000    22.230000000    12.834496484     1.700000048   0   0   0 # c
    170      1   1  0.000000    22.230000000    17.112661979     1.700000048   0   0   0 # c
    171      1   1  0.000000    24.700000000     0.000000000     1.700000048   0   0   0 # c
    172      1   1  0.000000    24.700000000     4.278165495     1.700000048   0   0   0 # c
    173      1   1  0.000000    24.700000000     8.556330989     1.700000048   0   0   0 # c
    174      1   1  0.000000    24.700000000    12.834496484     1.700000048   0   0   0 # c
    175      1   1  0.000000    24.700000000    17.112661979     1.700000048   0   0   0 # c
    176      1   1  0.000000    27.170000000     0.000000000     1.700000048   0   0   0 # c
    177      1   1  0.000000    27.170000000     4.278165495     1.700000048   0   0   0 # c
    178      1   1  0.000000    27.170000000     8.556330989     1.700000048   0   0   0 # c
    179      1   1  0.000000    27.170000000    12.834496484     1.700000048   0   0   0 # c
    180      1   1  0.000000    27.170000000    17.112661979     1.700000048   0   0   0 # c
    181      1   1  0.000000    29.640000000     0.000000000     1.700000048   0   0   0 # c
    182      1   1  0.000000    29.640000000     4.278165495     1.700000048   0   0   0 # c
    183      1   1  0.000000    29.640000000     8.556330989     1.700000048   0   0   0 # c
    184      1   1  0.000000    29.640000000    12.834496484     1.700000048   0   0   0 # c
    185      1   1  0.000000    29.640000000    17.112661979     1.700000048   0   0   0 # c
    186      1   1  0.000000    32.110000000     0.000000000     1.700000048   0   0   0 # c
    187      1   1  0.000000    32.110000000     4.278165495     1.700000048   0   0   0 # c
    188      1   1  0.000000    32.110000000     8.556330989     1.700000048   0   0   0 # c
    189      1   1  0.000000    32.110000000    12.834496484     1.700000048   0   0   0 # c
    190      1   1  0.000000    32.110000000    17.112661979     1.700000048   0   0   0 # c
    191      1   1  0.000000    34.580000000     0.000000000     1.700000048   0   0   0 # c
    192      1   1  0.000000    34.580000000     4.278165495     1.700000048   0   0   0 # c
    193      1   1  0.000000    34.580000000     8.556330989     1.700000048   0   0   0 # c
    194      1   1  0.000000    34.580000000    12.834496484     1.700000048   0   0   0 # c
    195      1   1  0.000000    34.580000000    17.112661979     1.700000048   0   0   0 # c
    196      1   1  0.000000    37.050000000     0.000000000     1.700000048   0   0   0 # c
    197      1   1  0.000000    37.050000000     4.278165495     1.700000048   0   0   0 # c
    198      1   1  0.000000    37.050000000     8.556330989     1.700000048   0   0   0 # c
    199      1   1  0.000000    37.050000000    12.834496484     1.700000048   0   0   0 # c
    200      1   1  0.000000    37.050000000    17.112661979     1.700000048   0   0   0 # c
    201      1   1  0.000000    20.995000000     2.139082747     1.700000048   0   0   0 # c
    202      1   1  0.000000    20.995000000     6.417248242     1.700000048   0   0   0 # c
    203      1   1  0.000000    20.995000000    10.695413737     1.700000048   0   0   0 # c
    204      1   1  0.000000    20.995000000    14.973579231     1.700000048   0   0   0 # c
    205      1   1  0.000000    20.995000000    19.251744726     1.700000048   0   0   0 # c
    206      1   1  0.000000    23.465000000     2.139082747     1.700000048   0   0   0 # c
    207      1   1  0.000000    23.465000000     6.417248242     1.700000048   0   0   0 # c
    208      1   1  0.000000    23.465000000    10.695413737     1.700000048   0   0   0 # c
    209      1   1  0.000000    23.465000000    14.973579231     1.700000048   0   0   0 # c
    210      1   1  0.000000    23.465000000    19.251744726     1.700000048   0   0   0 # c
    211      1   1  0.000000    25.935000000     2.139082747     1.700000048   0   0   0 # c
    212      1   1  0.000000    25.935000000     6.417248242     1.700000048   0   0   0 # c
    213      1   1  0.000000    25.935000000    10.695413737     1.700000048   0   0   0 # c
    214      1   1  0.000000    25.935000000    14.973579231     1.700000048   0   0   0 # c
    215      1   1  0.000000    25.935000000    19.251744726     1.700000048   0   0   0 # c
    216      1   1  0.000000    28.405000000     2.139082747     1.700000048   0   0   0 # c
    217      1   1  0.000000    28.405000000     6.417248242     1.700000048   0   0   0 # c
    218      1   1  0.000000    28.405000000    10.695413737     1.700000048   0   0   0 # c
    219      1   1  0.000000    28.405000000    14.973579231     1.700000048   0   0   0 # c
    220      1   1  0.000000    28.405000000    19.251744726     1.700000048   0   0   0 # c
    221      1   1  0.000000    30.875000000     2.139082747     1.700000048   0   0   0 # c
    222      1   1  0.000000    30.875000000     6.417248242     1.700000048   0   0   0 # c
    223      1   1  0.000000    30.875000000    10.695413737     1.700000048   0   0   0 # c
    224      1   1  0.000000    30.875000000    14.973579231     1.700000048   0   0   0 # c
    225      1   1  0.000000    30.875000000    19.251744726     1.700000048   0   0   0 # c
    226      1   1  0.000000    33.345000000     2.139082747     1.700000048   0   0   0 # c
    227      1   1  0.000000    33.345000000     6.417248242     1.700000048   0   0   0 # c
    228      1   1  0.000000    33.345000000    10.695413737     1.700000048   0   0   0 # c
    229      1   1  0.000000    33.345000000    14.973579231     1.700000048   0   0   0 # c
    230      1   1  0.000000    33.345000000    19.251744726     1.700000048   0   0   0 # c
    231      1   1  0.000000    35.815000000     2.139082747     1.700000048   0   0   0 # c
    232      1   1  0.000000    35.815000000     6.417248242     1.700000048   0   0   0 # c
    233      1   1  0.000000    35.815000000    10.695413737     1.700000048   0   0   0 # c
    234      1   1  0.000000    35.815000000    14.973579231     1.700000048   0   0   0 # c
    235      1   1  0.000000    35.815000000    19.251744726     1.700000048   0   0   0 # c
    236      1   1  0.000000    38.285000000     2.139082747     1.700000048   0   0   0 # c
    237      1   1  0.000000    38.285000000     6.417248242     1.700000048   0   0   0 # c
    238      1   1  0.000000    38.285000000    10.695413737     1.700000048   0   0   0 # c
    239      1   1  0.000000    38.285000000    14.973579231     1.700000048   0   0   0 # c
    240      1   1  0.000000    38.285000000    19.251744726     1.700000048   0   0   0 # c
    241      1   1  0.000000    19.760000000     1.426055165     1.700000048   0   0   0 # c
    242      1   1  0.000000    19.760000000     5.704220660     1.700000048   0   0   0 # c
    243      1   1  0.000000    19.760000000     9.982386154     1.700000048   0   0   0 # c
    244      1   1  0.000000    19.760000000    14.260551649     1.700000048   0   0   0 # c
    245      1   1  0.000000    19.760000000    18.538717144     1.700000048   0   0   0 # c
    246      1   1  0.000000    22.230000000     1.426055165     1.700000048   0   0   0 # c
    247      1   1  0.000000    22.230000000     5.704220660     1.700000048   0   0   0 # c
    248      1   1  0.000000    22.230000000     9.982386154     1.700000048   0   0   0 # c
    249      1   1  0.000000    22.230000000    14.260551649     1.700000048   0   0   0 # c
    250      1   1  0.000000    22.230000000    18.538717144     1.700000048   0   0   0 # c
    251      1   1  0.000000    24.700000000     1.426055165     1.700000048   0   0   0 # c
    252      1   1  0.000000    24.700000000     5.704220660     1.700000048   0   0   0 # c
    253      1   1  0.000000    24.700000000     9.982386154     1.700000048   0   0   0 # c
    254      1   1  0.000000    24.700000000    14.260551649     1.700000048   0   0   0 # c
    255      1   1  0.000000    24.700000000    18.538717144     1.700000048   0   0   0 # c
    256      1   1  0.000000    27.170000000     1.426055165     1.700000048   0   0   0 # c
    257      1   1  0.000000    27.170000000     5.704220660     1.700000048   0   0   0 # c
    258      1   1  0.000000    27.170000000     9.982386154     1.700000048   0   0   0 # c
    259      1   1  0.000000    27.170000000    14.260551649     1.700000048   0   0   0 # c
    260      1   1  0.000000    27.170000000    18.538717144     1.700000048   0   0   0 # c
    261      1   1  0.000000    29.640000000     1.426055165     1.700000048   0   0   0 # c
    262      1   1  0.000000    29.640000000     5.704220660     1.700000048   0   0   0 # c
    263      1   1  0.000000    29.640000000     9.982386154     1.700000048   0   0   0 # c
    264      1   1  0.000000    29.640000000    14.260551649     1.700000048   0   0   0 # c
    265      1   1  0.000000    29.640000000    18.538717144     1.700000048   0   0   0 # c
    266      1   1  0.000000    32.110000000     1.426055165     1.700000048   0   0   0 # c
    267      1   1  0.000000    32.110000000     5.704220660     1.700000048   0   0   0 # c
    268      1   1  0.000000    32.110000000     9.982386154     1.700000048   0   0   0 # c
    269      1   1  0.000000    32.110000000    14.260551649     1.700000048   0   0   0 # c
    270      1   1  0.000000    32.110000000    18.538717144     1.700000048   0   0   0 # c
    271      1   1  0.000000    34.580000000     1.426055165     1.700000048   0   0   0 # c
    272      1   1  0.000000    34.580000000     5.704220660     1.700000048   0   0   0 # c
    273      1   1  0.000000    34.580000000     9.982386154     1.700000048   0   0   0 # c
    274      1   1  0.000000    34.580000000    14.260551649     1.700000048   0   0   0 # c
    275      1   1  0.000000    34.580000000    18.538717144     1.700000048   0   0   0 # c
    276      1   1  0.000000    37.050000000     1.426055165     1.700000048   0   0   0 # c
    277      1   1  0.000000    37.050000000     5.704220660     1.700000048   0   0   0 # c
    278      1   1  0.000000    37.050000000     9.982386154     1.700000048   0   0   0 # c
    279      1   1  0.000000    37.050000000    14.260551649     1.700000048   0   0   0 # c
    280      1   1  0.000000    37.050000000    18.538717144     1.700000048   0   0   0 # c
    281      1   1  0.000000    20.995000000     3.565137912     1.700000048   0   0   0 # c
    282      1   1  0.000000    20.995000000     7.843303407     1.700000048   0   0   0 # c
    283      1   1  0.000000    20.995000000    12.121468902     1.700000048   0   0   0 # c
    284      1   1  0.000000    20.995000000    16.399634396     1.700000048   0   0   0 # c
    285      1   1  0.000000    20.995000000    20.677799891     1.700000048   0   0   0 # c
    286      1   1  0.000000    23.465000000     3.565137912     1.700000048   0   0   0 # c
    287      1   1  0.000000    23.465000000     7.843303407     1.700000048   0   0   0 # c
    288      1   1  0.000000    23.465000000    12.121468902     1.700000048   0   0   0 # c
    289      1   1  0.000000    23.465000000    16.399634396     1.700000048   0   0   0 # c
    290      1   1  0.000000    23.465000000    20.677799891     1.700000048   0   0   0 # c
    291      1   1  0.000000    25.935000000     3.565137912     1.700000048   0   0   0 # c
    292      1   1  0.000000    25.935000000     7.843303407     1.700000048   0   0   0 # c
    293      1   1  0.000000    25.935000000    12.121468902     1.700000048   0   0   0 # c
    294      1   1  0.000000    25.935000000    16.399634396     1.700000048   0   0   0 # c
    295      1   1  0.000000    25.935000000    20.677799891     1.700000048   0   0   0 # c
    296      1   1  0.000000    28.405000000     3.565137912     1.700000048   0   0   0 # c
    297      1   1  0.000000    28.405000000     7.843303407     1.700000048   0   0   0 # c
    298      1   1  0.000000    28.405000000    12.121468902     1.700000048   0   0   0 # c
    299      1   1  0.000000    28.405000000    16.399634396     1.700000048   0   0   0 # c
    300      1   1  0.000000    28.405000000    20.677799891     1.700000048   0   0   0 # c
    301      1   1  0.000000    30.875000000     3.565137912     1.700000048   0   0   0 # c
    302      1   1  0.000000    30.875000000     7.843303407     1.700000048   0   0   0 # c
    303      1   1  0.000000    30.875000000    12.121468902     1.700000048   0   0   0 # c
    304      1   1  0.000000    30.875000000    16.399634396     1.700000048   0   0   0 # c
    305      1   1  0.000000    30.875000000    20.677799891     1.700000048   0   0   0 # c
    306      1   1  0.000000    33.345000000     3.565137912     1.700000048   0   0   0 # c
    307      1   1  0.000000    33.345000000     7.843303407     1.700000048   0   0   0 # c
    308      1   1  0.000000    33.345000000    12.121468902     1.700000048   0   0   0 # c
    309      1   1  0.000000    33.345000000    16.399634396     1.700000048   0   0   0 # c
    310      1   1  0.000000    33.345000000    20.677799891     1.700000048   0   0   0 # c
    311      1   1  0.000000    35.815000000     3.565137912     1.700000048   0   0   0 # c
    312      1   1  0.000000    35.815000000     7.843303407     1.700000048   0   0   0 # c
    313      1   1  0.000000    35.815000000    12.121468902     1.700000048   0   0   0 # c
    314      1   1  0.000000    35.815000000    16.399634396     1.700000048   0   0   0 # c
    315      1   1  0.000000    35.815000000    20.677799891     1.700000048   0   0   0 # c
    316      1   1  0.000000    38.285000000     3.565137912     1.700000048   0   0   0 # c
    317      1   1  0.000000    38.285000000     7.843303407     1.700000048   0   0   0 # c
    318      1   1  0.000000    38.285000000    12.121468902     1.700000048   0   0   0 # c