LAMMPS (3 Mar 2020)
  using 1 OpenMP thread(s) per MPI task
########## Initialization ##########

shell rm -rf dump
WARNING: Shell command 'rm' failed with error 'No such file or directory' (src/input.cpp:1313)
WARNING: Shell command 'rm' failed with error 'Is a directory' (src/input.cpp:1313)
shell mkdir dump
WARNING: Shell command 'mkdir' failed with error 'File exists' (src/input.cpp:1292)

restart 100 rst.1 rst.2

neighbor                2.0 bin
neigh_modify            delay 1 every 1 check yes

units		real
atom_style	full
boundary 	p p p

########## Potential function ##########

atom_style full
bond_style harmonic
angle_style harmonic
special_bonds lj/coul 0.0 0.0 0.5

pair_style lj/cut/coul/long 12.0 12.0
kspace_style pppm 1.0e-4

read_data swm4-ndp.data
  orthogonal box = (-12 -12 -12) to (12 12 12)
  4 by 4 by 4 MPI processor grid
  reading atoms ...
  2500 atoms
  scanning bonds ...
  1 = max bonds/atom
  scanning angles ...
  1 = max angles/atom
  reading bonds ...
  2000 bonds
  reading angles ...
  500 angles
  4 = max # of 1-2 neighbors
  3 = max # of 1-3 neighbors
  3 = max # of 1-4 neighbors
  4 = max # of special neighbors
  special bonds CPU = 0.00645812 secs
  read_data CPU = 0.109934 secs
replicate 2 2 2
  orthogonal box = (-12 -12 -12) to (36 36 36)
  4 by 4 by 4 MPI processor grid
  20000 atoms
  16000 bonds
  4000 angles
  4 = max # of 1-2 neighbors
  3 = max # of 1-3 neighbors
  3 = max # of 1-4 neighbors
  4 = max # of special neighbors
  special bonds CPU = 0.00370345 secs
  replicate CPU = 0.0228026 secs

change_box all z delta -40 60
  orthogonal box = (-12 -12 -52) to (36 36 96)

pair_coeff    1    1      0.210939     3.183950  # ODw ODw
pair_coeff    *   2*      0.000000     0.0

write_data       init.data
PPPM initialization ...
  using 12-bit tables for long-range coulomb (src/kspace.cpp:332)
  G vector (1/distance) = 0.239348
  grid = 30 30 72
  stencil order = 5
  estimated absolute RMS force accuracy = 0.0266212
  estimated relative force accuracy = 8.01689e-05
  using double precision KISS FFT
  3d grid and FFT values/proc = 4508 1800
Neighbor list info ...
  update every 1 steps, delay 1 steps, check yes
  max neighbors/atom: 2000, page size: 100000
  master list distance cutoff = 14
  ghost atom cutoff = 14
  binsize = 7, bins = 7 7 22
  1 neighbor lists, perpetual/occasional/extra = 1 0 0
  (1) pair lj/cut/coul/long, perpetual
      attributes: half, newton on
      pair build: half/bin/newton
      stencil: half/bin/3d/newton
      bin: standard

########## Group setting ##########

group ATOMS type 1:3
16000 atoms in group ATOMS
group CORES type 1
4000 atoms in group CORES
group DRUDES type 4
4000 atoms in group DRUDES

########## Configuration setting ##########

variable TK equal 300.0
variable TDK equal 1.0
variable PBAR equal 1.0

fix DRUDE all drude C N N D

velocity ATOMS create ${TK} 12345
velocity ATOMS create 300 12345
velocity DRUDES create ${TDK} 12345
velocity DRUDES create 1 12345

comm_modify vel yes
compute TATOM ATOMS temp/com
compute TEMP all temp/drude

########## Equilibration ##########

timestep 	     1.0

# fix              SHAKE ATOMS shake 1e-4 20 0 b 1 2 a 1

delete_bonds     ATOMS multi
PPPM initialization ...
  using 12-bit tables for long-range coulomb (src/kspace.cpp:332)
  G vector (1/distance) = 0.239348
  grid = 30 30 72
  stencil order = 5
  estimated absolute RMS force accuracy = 0.0266212
  estimated relative force accuracy = 8.01689e-05
  using double precision KISS FFT
  3d grid and FFT values/proc = 4508 1800
Rebuild special list taking Drude particles into account
Old max number of 1-2 to 1-4 neighbors: 4
New max number of 1-2 to 1-4 neighbors: 4 (+0)
  16000 total bonds, 4000 turned on, 12000 turned off
  4000 total angles, 0 turned on, 4000 turned off
  0 total dihedrals, 0 turned on, 0 turned off
  0 total impropers, 0 turned on, 0 turned off

fix              DIRECT all drude/transform/direct
fix              RIGID ATOMS rigid/nvt/small molecule temp 300. 300. 100
  create bodies CPU = 0.0024352 secs
4000 rigid bodies with 16000 atoms
  0.832099 = max distance from body owner to body atom
fix              NVT DRUDES nvt temp 1. 1. 20
fix              INVERSE all drude/transform/inverse
thermo           1000
thermo_style     custom step temp etotal ke pe  press  pxx pyy pzz   lx ly lz
dump             1 all custom 1000  ./dump/nvt.lammpstrj id type x y z vx vy vz fx fy fz
run				 3000000
PPPM initialization ...
  using 12-bit tables for long-range coulomb (src/kspace.cpp:332)
  G vector (1/distance) = 0.239348
  grid = 30 30 72
  stencil order = 5
  estimated absolute RMS force accuracy = 0.0266212
  estimated relative force accuracy = 8.01689e-05
  using double precision KISS FFT
  3d grid and FFT values/proc = 4508 1800
Per MPI rank memory allocation (min/avg/max) = 8.898 | 15.42 | 20.81 Mbytes
Step Temp TotEng KinEng PotEng Press Pxx Pyy Pzz Lx Ly Lz 
       0    201.66229    35796.703    7212.8026    28583.901    67975.226    100658.19    94240.829    9026.6555           48           48          148 
    1000    206.24674   -28511.658    7376.7734   -35888.431   -1108.4606   -1026.0126   -920.78249   -1378.5868           48           48          148 
    2000    202.49754   -29513.771    7242.6768   -36756.448   -703.66685   -605.56705   -713.80784   -791.62566           48           48          148 
    3000    204.47671   -30049.661    7313.4653   -37363.126   -538.57665   -659.04655   -443.24037   -513.44304           48           48          148 
    4000    206.84941   -30928.224    7398.3291   -38326.553   -229.54327    -385.3955   -226.54631   -76.688011           48           48          148 
    5000    203.26636   -31555.799    7270.1751   -38825.974    188.97686    189.33301    99.792965    277.80461           48           48          148 
    6000    206.33698   -31321.586     7380.001   -38701.587    126.68432    86.604757    70.683373    222.76484           48           48          148 
    7000    203.76775   -31233.953    7288.1082   -38522.061   -131.99457   -256.87978    69.732061   -208.83598           48           48          148 
    8000    203.48675   -31127.202    7278.0576    -38405.26    31.242806    96.569831    9.5346103   -12.376024           48           48          148 
    9000    206.43636   -30931.653    7383.5557   -38315.209    -102.4058   -39.906351   -221.78508   -45.525972           48           48          148 
   10000    208.09389   -31007.687      7442.84   -38450.527    122.12878    198.35265    8.9498159    159.08386           48           48          148 
   11000    207.50221   -31224.827    7421.6775   -38646.504   -61.671921   -19.878591   -180.96458    15.827412           48           48          148 
   12000     204.2783   -31530.319    7306.3687   -38836.687    70.923164    77.472785   -50.887076    186.18378           48           48          148 
   13000     205.1556   -31262.675    7337.7471   -38600.422   -105.54637   -30.774593   -172.80528   -113.05923           48           48          148 
   14000    206.25937   -31164.467    7377.2253   -38541.693   -98.374228   -152.02671   -220.10114    77.005174           48           48          148 
   15000    206.38445   -31147.087    7381.6989   -38528.786    -146.4177   -149.73344   -141.14719   -148.37247           48           48          148 
   16000    207.53467   -31000.752    7422.8387   -38423.591   -10.413859   -52.205711   -86.468041    107.43218           48           48          148 
   17000    205.96055   -31207.795    7366.5374   -38574.332   -91.237467   -174.82908    35.696395   -134.57971           48           48          148 
   18000    203.41458   -31560.847    7275.4765   -38836.323    37.964362    13.594862     83.20877    17.089455           48           48          148 
   19000    208.69494   -31336.332    7464.3376    -38800.67    33.972505   -27.171806    64.185106    64.904215           48           48          148 
   20000    208.58299   -31120.493    7460.3337   -38580.827   -8.6860491    74.014748    78.021327   -178.09422           48           48          148 
   21000    205.65972   -31116.847    7355.7775   -38472.625   -36.464023    -14.96159   -27.913972   -66.516508           48           48          148 
   22000    205.09977   -31096.278    7335.7502   -38432.028   -133.08421   -164.96826    4.8407354    -239.1251           48           48          148 
   23000    202.07593   -31211.704    7227.5973   -38439.301   -33.405059     54.03382   -172.45965    18.210654           48           48          148 
   24000    204.16791     -31347.6    7302.4206   -38650.021    23.275043   -35.785482   -38.574796    144.18541           48           48          148 
   25000    207.79039   -31243.905    7431.9847    -38675.89   -132.94558   -122.59056   -77.678175   -198.56802           48           48          148 
   26000    207.19301   -31267.646    7410.6183   -38678.264    21.160712    126.58985    10.418428   -73.526146           48           48          148 
   27000    201.63594    -31378.13    7211.8603   -38589.991    32.864955    100.26694   -177.32363    175.65156           48           48          148 
   28000    205.61279   -31425.521     7354.099    -38779.62   -94.561972   -18.111516   -95.955704    -169.6187           48           48          148 
   29000    202.04085   -31336.405    7226.3425   -38562.747   -105.18542   -108.00299   -124.55683   -82.996441           48           48          148 
   30000    205.10042   -30918.055    7335.7735   -38253.828   -63.884555   -39.159754   -5.0401663   -147.45374           48           48          148 
   31000    202.19183   -31289.794    7231.7427   -38521.536    5.3238588    103.53184   -74.091838   -13.468426           48           48          148 
   32000    204.38249   -31197.955    7310.0953    -38508.05   -24.830983   -117.15512    39.870423    2.7917519           48           48          148 
   33000    205.17163   -31281.174    7338.3204   -38619.494    -3.742527   -74.036071   -124.98345    187.79194           48           48          148 
   34000    206.25812   -31303.318    7377.1806   -38680.499   -106.15006   -3.1002075   -282.01843   -33.331539           48           48          148 
   35000    207.61634   -30976.116    7425.7595   -38401.875    -80.09916   -154.88417   -128.42409    43.010781           48           48          148 
   36000    205.58534   -31139.995    7353.1172   -38493.113   -118.38651   -158.03984   -160.11821   -37.001481           48           48          148 
   37000    201.77291    -31519.85    7216.7591   -38736.609   -41.774451    82.681455   -195.43166   -12.573148           48           48          148 
   38000    205.14732   -31313.562    7337.4506   -38651.013    9.0247963    27.952512   -104.05896    103.18084           48           48          148 
   39000    203.79684    -31195.94    7289.1485   -38485.089   -53.502308   -32.694179   -84.629282   -43.183462           48           48          148 
   40000    204.00765   -31472.584    7296.6884   -38769.272   -39.242562   -93.739175   -84.592962     60.60445           48           48          148 
   41000    203.14697   -31493.542    7265.9049   -38759.447   -70.565224   -121.54789    16.843316    -106.9911           48           48          148 
   42000    205.20268   -31210.265    7339.4308   -38549.696     53.76025   -2.4281494    -28.54793    192.25683           48           48          148 
   43000    204.61381   -31279.436    7318.3689   -38597.805    42.801173    73.669238    42.059798    12.674481           48           48          148 
   44000    206.17121   -31295.373     7374.072   -38669.445    2.9795598   -7.4670537   -38.797558    55.203291           48           48          148 
   45000     204.1087   -31190.705    7300.3028   -38491.008   -117.27992    98.072225   -280.73742   -169.17455           48           48          148 
   46000    203.52994   -31357.766    7279.6026   -38637.369   -62.884329   -122.51584   -142.32755    76.190407           48           48          148 
   47000    202.25096   -31133.075    7233.8575   -38366.932   -30.235466   -319.10524    39.484133    188.91471           48           48          148 
   48000    204.77056   -31275.107    7323.9755   -38599.082   -33.105593   -107.55481    26.023169   -17.785142           48           48          148 
   49000    202.29189   -31624.668    7235.3213    -38859.99      1.37065   -77.232813    44.549607    36.795156           48           48          148 
   50000    204.39136   -31344.766    7310.4127   -38655.179    -141.3928    -90.48468    -268.9824   -64.711318           48           48          148 
   51000    207.10587   -31137.141    7407.5016   -38544.642   -86.079141   -93.981154    -212.8352    48.578936           48           48          148 
   52000    202.84469   -31333.238    7255.0932   -38588.331    33.328593   -59.975586    3.2879887    156.67338           48           48          148 
   53000    204.83147   -31281.662     7326.154   -38607.816   -125.25124   -78.323237   -262.43107   -34.999398           48           48          148 
   54000    204.64808   -31246.974    7319.5948   -38566.569   -76.132485    7.4145103    -153.6888   -82.123169           48           48          148 
   55000    204.22018   -31113.168      7304.29   -38417.458   -32.584307    15.832458   -146.36225    32.776871           48           48          148 
   56000    201.92395   -31149.133    7222.1614   -38371.294   -49.856799   -81.097301    102.80202   -171.27512           48           48          148 
   57000    207.11806   -31150.174    7407.9378   -38558.112    22.564047    42.378801    61.108414   -35.795075           48           48          148 
   58000    205.71377   -31207.233    7357.7107   -38564.943   -189.90401   -173.37765   -198.22668   -198.10771           48           48          148 
   59000    200.76592   -31401.961    7180.7425   -38582.703   -45.466616    30.204315   -29.031078   -137.57308           48           48          148 
   60000    208.01737   -31085.844    7440.1031   -38525.947   -128.53088   -181.11452   -87.928227   -116.54989           48           48          148 
   61000    206.22845   -31205.668    7376.1192   -38581.787   -70.516826     -327.481     38.23852    77.692003           48           48          148 
   62000    204.76659   -31305.186    7323.8334    -38629.02     82.12018   -47.462075    19.395955    274.42666           48           48          148 
   63000    201.37838   -31371.937     7202.648   -38574.585   -90.472049   -34.901562   -85.856661   -150.65793           48           48          148 
   64000    204.43966   -31435.252    7312.1403   -38747.392   -31.283105    6.0224954   -76.858611   -23.013199           48           48          148 
   65000    207.81755   -31226.447    7432.9561   -38659.403   -8.5687628     63.23763    5.2816815     -94.2256           48           48          148 
   66000    202.43597   -31254.886    7240.4745   -38495.361   -67.468448   -13.301985   -132.01183   -57.091526           48           48          148 
   67000    206.90454   -31102.913    7400.3009   -38503.214   -115.93868    62.037078   -116.23141   -293.62169           48           48          148 
   68000    204.27572   -31274.191    7306.2765   -38580.468    30.760517    -168.5154    9.1953289    251.60163           48           48          148 
   69000    203.52062   -31286.962     7279.269   -38566.231   -66.973573   -88.885515   -62.603423    -49.43178           48           48          148 
   70000    205.13203   -31072.602     7336.904   -38409.506   -191.73292   -184.45387   -145.30038   -245.44452           48           48          148 
   71000    210.29897   -30913.175    7521.7085   -38434.883    31.578323   0.90955201    103.30727   -9.4818535           48           48          148 
   72000    206.02065   -31301.897    7368.6869   -38670.584   -116.09429   -158.48388   -22.268384   -167.53061           48           48          148 
   73000    204.82927   -31119.399    7326.0753   -38445.474  -0.92013355    148.10487   -96.554634   -54.310637           48           48          148 
   74000      202.063   -31372.426    7227.1347   -38599.561   -148.96948   -196.96213   -144.11365   -105.83267           48           48          148 
   75000    203.99454   -31262.471    7296.2197   -38558.691    102.91032    149.61333    135.60453    23.513106           48           48          148 
   76000    205.26036    -31451.03    7341.4939   -38792.523   -136.03017   -135.81172    -164.6911   -107.58768           48           48          148 
   77000    207.36982    -31172.67    7416.9423   -38589.612   -1.7949196   -90.485498    45.270858    39.829881           48           48          148 
   78000     205.3427   -30992.095     7344.439   -38336.534    30.563264    31.222783    70.408715   -9.9417055           48           48          148 
   79000    203.88175   -31438.575    7292.1854    -38730.76   -55.863644   -38.559665   -213.45257    84.421302           48           48          148 
   80000    203.76323   -31249.721    7287.9465   -38537.668    -154.6884   -172.57868   -177.86593   -113.62058           48           48          148 
   81000    207.41621   -31041.471    7418.6015   -38460.072   -36.105645   -81.069756    41.754679   -69.001859           48           48          148 
   82000    204.41834     -31214.9    7311.3777   -38526.277   -1.0715117   -59.926128     68.31652   -11.604926           48           48          148 
   83000    205.64103    -31222.12    7355.1093   -38577.229    249.51777    206.57586    346.02025    195.95721           48           48          148 
   84000    205.42259   -31345.947    7347.2964   -38693.243    1.9159021    11.704791    40.541772   -46.498856           48           48          148 
   85000    206.54303   -31218.294     7387.371   -38605.665   -46.347896   -52.627245    137.13964   -223.55608           48           48          148 
   86000    206.61775   -30980.867    7390.0432   -38370.911   -74.335767   -114.45354   -6.7414229   -101.81234           48           48          148 
   87000    204.15364   -31204.401    7301.9103   -38506.311   -148.27724   -169.47664   -124.85079   -150.50429           48           48          148 
   88000    207.90478   -31072.129    7436.0762   -38508.205   -21.406229   -24.265729   -15.327336    -24.62562           48           48          148 
   89000    202.15958   -31360.139     7230.589   -38590.728   -62.959549   -51.929435   -190.86338    53.914172           48           48          148 
   90000    201.93055   -31265.678    7222.3976   -38488.075   -103.59657   -117.19621   -65.076154   -128.51734           48           48          148 
   91000    203.90399   -31418.395    7292.9811   -38711.376     40.76868    104.28965    -61.62519    79.641584           48           48          148 
   92000    203.96705   -31266.916    7295.2363   -38562.152    67.603378    19.486397    99.261332    84.062403           48           48          148 
   93000    204.84024   -31245.832    7326.4674   -38572.299   -125.44196   -64.200446   -79.526827    -232.5986           48           48          148 
   94000    204.35802   -31303.714      7309.22   -38612.934   -73.420698   -32.243712   -206.92347    18.905088           48           48          148 
   95000    204.62244   -31181.857    7318.6777   -38500.534     22.57769   -89.836238   -35.385834    192.95514           48           48          148 
   96000    205.07365   -31018.262     7334.816   -38353.078   -34.282136   -103.61008     25.20129   -24.437616           48           48          148 
   97000    204.30291   -31258.353    7307.2491   -38565.602   -102.08313   -277.52505   -190.39804    161.67368           48           48          148 
   98000    204.91716   -31387.592    7329.2187   -38716.811   -57.613532   -15.498664   -89.931521    -67.41041           48           48          148 
   99000     205.4827    -31390.06    7349.4462   -38739.506   -22.058326    -189.2416    77.379162    45.687457           48           48          148 
  100000    203.67274   -31387.907    7284.7098   -38672.617   -172.02312   -167.61028   -125.18946   -223.26961           48           48          148 
  101000    205.58572   -31286.414    7353.1309   -38639.544   -23.453108   -10.809155    -13.15398   -46.396188           48           48          148 
  102000    205.81397   -31377.037    7361.2947   -38738.331   -63.798694    -215.2143    55.336138   -31.517917           48           48          148 
  103000    204.87166   -31229.238    7327.5915   -38556.829    45.749829    20.481415    39.408737    77.359335           48           48          148 
  104000    206.36343   -31111.239    7380.9472   -38492.186   -129.17872   -194.32239   -61.346199   -131.86756           48           48          148 
  105000    205.07749    -31187.59    7334.9531   -38522.543    17.714838   -80.330056     25.62675    107.84782           48           48          148 
  106000    204.66538   -31247.511    7320.2133   -38567.724   -60.320545    32.417114   -60.653649    -152.7251           48           48          148 
  107000    203.78935   -31277.183    7288.8806   -38566.063    73.454931   -32.952911     1.663514    251.65419           48           48          148 
  108000    206.35746   -31255.598    7380.7336   -38636.331   -25.778993   -36.254135    46.666732   -87.749577           48           48          148 
  109000    206.74607   -31210.375    7394.6328   -38605.008   -5.2189735    48.142135   -28.413203   -35.385852           48           48          148 
  110000    207.85193   -31303.831    7434.1857   -38738.016   -143.31099   -2.4693546    -72.24704   -355.21657           48           48          148 
  111000    203.52126   -31349.234    7279.2918   -38628.525   -192.78541   -330.59349   -153.44198   -94.320767           48           48          148 
  112000    202.55001   -31514.285    7244.5534   -38758.838   -105.29941   -208.49714  -0.87160433   -106.52948           48           48          148 
  113000    205.59924   -31250.708    7353.6143   -38604.322    50.812065    27.359287    111.42118    13.655731           48           48          148 
  114000    209.91579   -31135.515    7508.0036   -38643.519    88.932106    88.019389    44.632654    134.14428           48           48          148 
  115000    203.99346   -31390.366     7296.181   -38686.547   -153.01573     -281.756    -80.27495   -97.016248           48           48          148 
  116000     205.1501   -31124.386    7337.5503   -38461.936     34.16035   -67.512752   0.93382928    169.05997           48           48          148 
  117000     205.6026   -31121.273    7353.7346   -38475.007   -118.89762    -34.65258   -188.08264   -133.95763           48           48          148 
  118000    204.79361    -31422.85    7324.7997    -38747.65   -125.17681   -11.773017   -196.96562   -166.79178           48           48          148 
  119000    200.82552   -31527.004    7182.8742   -38709.878    35.546975   -79.431198    38.823984    147.24814           48           48          148 
  120000    202.46409   -31322.455    7241.4806   -38563.936   -39.666222    17.819657   -219.87812    83.059803           48           48          148 
  121000    205.63662   -31167.349    7354.9515   -38522.301    -97.15013    -310.7427   -49.543309    68.835617           48           48          148 
  122000    205.02199   -31346.835     7332.968   -38679.803    36.255306    54.238636   -35.719271    90.246553           48           48          148 
  123000    204.55535   -31359.432     7316.278    -38675.71    140.86931     214.6916    138.69663    69.219709           48           48          148 
  124000    204.15285   -31219.442    7301.8818   -38521.323   -10.642811    110.60571   -101.40843   -41.125707           48           48          148 
  125000    205.75214    -31145.16    7359.0833   -38504.243   -49.043384   -187.67568   -8.0097303     48.55526           48           48          148 
  126000    204.18281    -31374.98    7302.9533   -38677.933    39.619267   -108.23595    189.38593    37.707822           48           48          148 
  127000      204.069   -30977.873    7298.8827   -38276.756    113.89028   -4.9178851    155.71686    190.87185           48           48          148 
  128000    207.97399   -30987.728    7438.5515   -38426.279   -13.869531    16.502111   -27.893231   -30.217473           48           48          148 
  129000    206.63522   -31170.135    7390.6681   -38560.803   -81.999738   -75.708307   -162.81351   -7.4773984           48           48          148 
  130000    210.16497   -31048.942    7516.9157   -38565.857    125.49135    63.791146    135.74814    176.93476           48           48          148 
  131000      205.746   -31344.212    7358.8636   -38703.076    24.233394   -84.691819   -31.001325    188.39333           48           48          148 
  132000    206.95092   -31055.788    7401.9598   -38457.747    -79.92082   -164.13678   -104.52765     28.90197           48           48          148 
  133000     202.9219   -31355.581    7257.8548   -38613.436   -38.618063   -16.977919    49.112732     -147.989           48           48          148 
  134000    204.57164   -31230.245    7316.8605   -38547.105    32.311341    16.857949    153.58569   -73.509619           48           48          148 
  135000    206.72078   -31051.641    7393.7284    -38445.37   -79.867142   -167.56834    36.204441   -108.23752           48           48          148 
  136000    204.21214   -31208.601    7304.0024   -38512.604   -108.30681   -152.48654   -26.172287   -146.26161           48           48          148 
  137000    207.12481    -31227.53    7408.1793   -38635.709    47.314926    30.750919    85.498232    25.695625           48           48          148 
  138000     202.4054       -31341    7239.3812   -38580.381   -11.247421   -23.384509   -62.778259    52.420505           48           48          148 
  139000    204.69049   -31311.381    7321.1114   -38632.492    37.946643    -51.34305    90.128759    75.054221           48           48          148 
  140000    203.79142   -31346.631    7288.9546   -38635.586   -78.807592   -59.092215   -37.040634   -140.28993           48           48          148 
  141000    205.55976   -31096.863    7352.2024   -38449.066    22.452558    21.107401    117.45048   -71.200208           48           48          148 
  142000    207.63695   -31122.343    7426.4969    -38548.84    16.705735   -36.334105    15.349473    71.101837           48           48          148 
  143000    206.79634    -31112.31    7396.4307   -38508.741   -42.129653   -141.56427    -114.3229    129.49821           48           48          148 
  144000    200.08894   -31224.342     7156.529   -38380.871   -207.00381   -202.62604   -177.25886   -241.12654           48           48          148 
  145000    206.01772   -31224.453     7368.582   -38593.035   -38.758503   -20.750179   -78.181155   -17.344174           48           48          148 
  146000    205.40835   -31244.527    7346.7871   -38591.314    53.440175    79.322791    69.491912    11.505821           48           48          148 
  147000    204.69278   -31305.664    7321.1932   -38626.857   -34.456863    3.0004702   -126.76641    20.395355           48           48          148 
  148000    206.87499   -31488.499    7399.2438   -38887.743    43.120351   -30.285362    109.55948     50.08693           48           48          148 
  149000    206.37048   -31110.884    7381.1993   -38492.083    15.096777   -122.93092   -22.531668    190.75292           48           48          148 
  150000     204.1896   -31279.007    7303.1961   -38582.203   -168.14415   -312.14062   -155.73585   -36.555999           48           48          148 
  151000    208.58472   -31072.362    7460.3952   -38532.758   -34.652347   -159.54456    120.15876   -64.571235           48           48          148 
  152000    204.21096   -31329.901    7303.9604   -38633.861   -27.230498   -5.8287109   -29.067427   -46.795355           48           48          148 
  153000    209.07144   -31185.427    7477.8039    -38663.23    43.761335    27.855459    126.64208   -23.213529           48           48          148 
  154000    207.47228   -31154.903    7420.6069    -38575.51    111.10556   -61.199971    184.51059    210.00605           48           48          148 
  155000    207.56097   -31347.266    7423.7791   -38771.045   -172.33342   -80.867557   -388.86011   -47.272585           48           48          148 
  156000    206.53345   -31080.458    7387.0282   -38467.486   -90.114261   -86.590685   -170.60547   -13.146628           48           48          148 
  157000    205.91729   -31167.409      7364.99   -38532.399   0.18710809    23.714558   -85.472548    62.319314           48           48          148 
  158000    203.56856   -31406.263    7280.9837   -38687.247   -83.992603   -50.463191   -165.84863   -35.665982           48           48          148 
  159000    202.29806   -31452.664    7235.5419   -38688.206   -145.42505   -174.48741   -173.59134   -88.196395           48           48          148 
  160000    201.04745   -31508.874    7190.8118   -38699.686    26.797905   -28.863604   -152.61151    261.86883           48           48          148 
  161000    207.65706   -31117.813     7427.216   -38545.029   -105.16561   -121.67719   -182.94656   -10.873096           48           48          148 
  162000    204.33834   -31149.856    7308.5164   -38458.373   -81.226957   -42.883342   -126.95441   -73.843119           48           48          148 
  163000    204.81042   -31105.244    7325.4011   -38430.646   -49.863604   -28.599322     -154.593    33.601506           48           48          148 
  164000    204.83918   -31201.553    7326.4298   -38527.983     131.1414    52.835566   -129.78814    470.37677           48           48          148 
  165000    204.32337    -31338.26    7307.9807   -38646.241   -18.412119   -37.498847     129.2883   -147.02581           48           48          148 
  166000    206.33563   -31321.882    7379.9527   -38701.834   -29.763031   -101.65269   -64.373763    76.737365           48           48          148 
  167000    205.29005   -31141.838    7342.5557   -38484.393   -40.051582    48.996081   -174.60112    5.4502927           48           48          148 
  168000    205.73671   -31373.542    7358.5314   -38732.073    15.788728    44.242587    20.970843   -17.847247           48           48          148 
  169000    202.80964   -31315.116    7253.8396   -38568.956   -46.185785   -265.77391     108.2277    18.988849           48           48          148 
  170000    206.77644   -31085.928    7395.7192   -38481.647   -40.359131   -127.88001   -32.153035    38.955649           48           48          148 
  171000    205.62705   -31339.188    7354.6092   -38693.798   -192.91262   -112.27356   -213.32678   -253.13754           48           48          148 
  172000    206.88526   -31051.956    7399.6113   -38451.568   -28.591279   -50.037927   -39.841032    4.1051217           48           48          148 
  173000    205.68504   -31164.356    7356.6832   -38521.039    31.376039    66.894073    68.946052   -41.712009           48           48          148 
  174000    207.78081   -31253.164    7431.6422   -38684.806    23.342128   -98.138359   -9.7859767    177.95072           48           48          148 
  175000    203.33654    -31451.97     7272.685   -38724.655    91.234616    62.368895   -3.7601392    215.09509           48           48          148 
  176000    205.10001   -30991.005    7335.7589   -38326.764    -109.2596    -137.1968    6.1127149    -196.6947           48           48          148 
  177000    204.34199   -31289.024    7308.6467   -38597.671   -135.79543   -223.80933   -139.77148   -43.805477           48           48          148 
  178000    204.58505   -31305.777    7317.3404   -38623.117     30.59231     25.21552    133.76098   -67.199568           48           48          148 
  179000    203.79246    -31229.87     7288.992   -38518.862   -4.3581029   -10.846706   -25.717431    23.489828           48           48          148 
  180000    202.75225   -31323.383     7251.787    -38575.17    60.596615    78.567017   -82.634396    185.85722           48           48          148 
  181000    205.45066   -31177.936    7348.3004   -38526.237   -2.3647076    22.962894    -54.47404    24.417023           48           48          148 
  182000    204.75737   -31102.969    7323.5036   -38426.473   -17.315524   -64.941559    2.1741089     10.82088           48           48          148 
  183000    206.98606   -31109.558    7403.2166   -38512.775    -55.33194    30.160294   -162.91705    -33.23907           48           48          148 
  184000    209.31296   -31044.795    7486.4422   -38531.237   -20.201222   -102.76177   -31.779122    73.937223           48           48          148 
  185000    207.03161   -31138.662    7404.8458   -38543.508   -20.165449   -13.927511   -137.71092    91.142089           48           48          148 
  186000    206.77628   -31374.038    7395.7133   -38769.751    12.898641    108.42457   -122.60502    52.876378           48           48          148 
  187000    206.15826   -31285.954    7373.6089   -38659.563   -42.013465    48.709379    -75.73597   -99.013804           48           48          148 
  188000    207.60846   -31280.545    7425.4779   -38706.023   -196.05546   -72.974425   -436.93861   -78.253329           48           48          148 
  189000     202.2203   -31324.311    7232.7607   -38557.072     76.02214    97.075942   -41.682806    172.67328           48           48          148 
  190000    207.31614   -31170.541    7415.0223   -38585.563    114.84891   -66.045048    80.437823    330.15396           48           48          148 
  191000    205.94472   -31377.016    7365.9713   -38742.988   -79.341425   -70.750208   -173.55811    6.2840384           48           48          148 
  192000    204.54761   -31423.046    7316.0011   -38739.047   -84.798132   -98.852313     41.39907   -196.94115           48           48          148 
  193000    206.13122   -31270.014    7372.6417   -38642.656   -184.12442   -216.32784   -232.22166   -103.82376           48           48          148 
  194000    204.28407   -31329.099    7306.5753   -38635.674   -49.788652    -3.657107     -122.833   -22.875846           48           48          148 
  195000    206.28256   -31242.437    7378.0548   -38620.492   -48.787347     31.27277   -139.49422   -38.140597           48           48          148 
  196000    207.28986   -31070.702    7414.0826   -38484.784   -133.68426   -86.608791   -132.60156   -181.84244           48           48          148 
  197000    205.66776   -31272.991    7356.0651   -38629.056   -120.06015   -244.82228   -151.33901    35.980829           48           48          148 
  198000    206.70528   -31291.582    7393.1741   -38684.756    85.435035    38.014866    142.01962    76.270623           48           48          148 
  199000    203.11376   -31328.302    7264.7169   -38593.019   -36.829184   -53.449219    6.2070594   -63.245391           48           48          148 
  200000    204.45008   -31278.751    7312.5129   -38591.264    62.366178    141.80225   -87.989273    133.28556           48           48          148 
  201000    203.60187   -31052.627    7282.1752   -38334.803   -18.366385   -133.98161    25.828204     53.05425           48           48          148 
  202000    206.85437   -31210.512    7398.5064   -38609.018   -73.535034   -56.508715   -120.10117   -43.995221           48           48          148 
  203000    206.05912       -31235    7370.0628   -38605.063    10.556166   -71.957518    64.593444    39.032571           48           48          148 
  204000    204.30234   -31381.538    7307.2288   -38688.766   -40.064866   -17.136134   -30.656499   -72.401965           48           48          148 
  205000    206.08304   -31389.973    7370.9184   -38760.892   -114.04998   -119.79288   -79.031676   -143.32537           48           48          148 
  206000     204.3242   -31353.538    7308.0104   -38661.548    -156.0871   -270.39729   -218.19294    20.328922           48           48          148 
  207000    202.89995     -31346.5    7257.0698    -38603.57    39.493281    41.684727   -22.387179    99.182295           48           48          148 
  208000    208.18043   -31533.664    7445.9352     -38979.6    1.6602779   -24.097532   -35.680654     64.75902           48           48          148 
  209000    202.48626   -31365.457    7242.2734   -38607.731   -35.562375    45.309866   -92.036826   -59.960164           48           48          148 
  210000    205.16615   -31264.931    7338.1244   -38603.056   -11.400594   -95.715652   -30.528545    92.042414           48           48          148 
  211000    206.18266   -31282.296    7374.4816   -38656.778   -52.738804   -249.49913    53.807412    37.475303           48           48          148 
  212000    202.06951   -31382.264    7227.3674   -38609.632   -106.63174   -198.56976   -104.40654   -16.918922           48           48          148 
  213000    205.39422   -31112.636    7346.2817   -38458.917   -72.847391   -43.839763   -41.298136   -133.40427           48           48          148 
  214000    206.17123   -31287.821    7374.0726   -38661.893   -17.187241    48.877953    21.149168   -121.58884           48           48          148 
  215000      207.813   -31356.526    7432.7935   -38789.319    70.466545    179.13134    119.02667   -86.758374           48           48          148 
  216000    206.48429    -31413.56    7385.2698    -38798.83   -187.54309   -80.083243    -319.2711   -163.27493           48           48          148 
  217000    208.95554   -31155.677    7473.6585   -38629.335   -145.94665   -103.83106   -289.94653   -44.062367           48           48          148 
  218000    205.28845   -31135.591    7342.4987    -38478.09    126.34347    160.49107  -0.48185996    219.02119           48           48          148 
  219000    204.57409   -31283.431    7316.9483   -38600.379    65.907994    124.34817   -34.518644    107.89446           48           48          148 
  220000     203.1087   -31376.314    7264.5362    -38640.85    86.007784   -47.760108    322.72222   -16.938764           48           48          148 
  221000    203.75658   -30970.105    7287.7086   -38257.813    89.076541    68.377528   -15.580794    214.43289           48           48          148 
  222000    205.40821   -31155.666     7346.782   -38502.447    83.659981     184.8298    110.07742   -43.927271           48           48          148 
  223000     207.0339   -31402.321    7404.9275   -38807.248   -63.887234   -137.48538   -93.295458    39.119135           48           48          148 
  224000    205.70056   -31066.726    7357.2383   -38423.964   -53.358691   -12.450705   -228.98575    81.360383           48           48          148 
  225000     207.9769   -31257.804    7438.6557    -38696.46    17.604498   -146.39256    10.127712    189.07835           48           48          148 
  226000    205.09293   -31421.009    7335.5055   -38756.515   -108.52689   -146.18314   -101.69846    -77.69906           48           48          148 
  227000    201.92653   -31533.946    7222.2535   -38756.199   -97.416214   -103.44163   -31.027597   -157.77941           48           48          148 
  228000    207.44455   -31383.082    7419.6154   -38802.697   -58.983364    115.31178   -96.336847   -195.92502           48           48          148 
  229000    201.43348   -31558.921    7204.6188   -38763.539    57.501784    96.210235    73.628223    2.6668959           48           48          148 
  230000    208.25394    -30908.59    7448.5644   -38357.154   -149.72219    13.207629   -97.176453   -365.19774           48           48          148 
  231000    206.30738   -31113.713    7378.9423   -38492.655   -76.771106   -161.38097   -70.683438    1.7510911           48           48          148 
  232000    206.22079   -31196.663    7375.8453   -38572.508   -25.713592   -86.691512   -25.352181    34.902919           48           48          148 
  233000     208.2417   -31157.314    7448.1266    -38605.44    39.895323     140.3939   -65.395396    44.687461           48           48          148 
  234000    205.72934   -31420.685    7358.2676   -38778.953   -64.129129    19.359874   -379.78623    168.03897           48           48          148 
  235000    202.87292   -31504.893    7256.1028   -38760.996   -106.60465    -247.4468   -118.71602    46.348882           48           48          148 
  236000    206.45174   -31264.462    7384.1057   -38648.568   -161.07726   -267.09725   -136.36119    -79.77334           48           48          148 
  237000    202.67361   -31382.149    7248.9744   -38631.123    23.514469    3.1013839   -45.456686    112.89871           48           48          148 
  238000    205.62186   -31173.075    7354.4234   -38527.498   -67.312601    120.30929   -302.00874   -20.238359           48           48          148 
  239000    206.41052   -31334.674    7382.6315   -38717.306   -47.540183   -177.46667   -83.832548    118.67867           48           48          148 
  240000    205.29795   -31306.863    7342.8385   -38649.701   -22.297435    16.027186   -120.21312    37.293634           48           48          148 
  241000    204.95887   -31052.872    7330.7107   -38383.583   -283.29603   -315.11816   -317.37438   -217.39556           48           48          148 
  242000    203.78856   -31208.392    7288.8525   -38497.245   -135.69379   -123.26731   -112.61993   -171.19412           48           48          148 
  243000    204.93586   -31312.317    7329.8875   -38642.204    118.85467   -27.243085    153.95904    229.84805           48           48          148 
  244000     204.4742    -31239.72    7313.3754   -38553.096   -3.9646041   -69.485872    204.51374   -146.92168           48           48          148 
  245000     204.7801   -31245.961    7324.3167   -38570.278   -91.653927     -205.207    140.08919   -209.84398           48           48          148 
  246000    202.52077   -31260.547    7243.5075   -38504.055   -70.049846   -68.640837   -56.464759   -85.043941           48           48          148 
  247000    203.82791   -31073.411    7290.2599    -38363.67   -83.717278   -62.442127   -151.25428   -37.455429           48           48          148 
  248000    205.37101   -31324.653    7345.4516   -38670.104   -122.46529   -124.15951    -269.6099    26.373538           48           48          148 
  249000    204.17853   -31507.626    7302.8005   -38810.426   -75.970311    141.61201   -248.17592   -121.34702           48           48          148 
  250000    204.04173   -31425.775    7297.9073   -38723.682   -12.348783    30.655416   -153.54756    85.845799           48           48          148 
  251000    206.15185   -31265.493    7373.3794   -38638.872    14.891685   -104.01787    93.879815    54.813107           48           48          148 
  252000    203.59582   -31201.388    7281.9588   -38483.346   -103.30841   -167.92425   -148.60675    6.6057858           48           48          148 
  253000    205.12746   -31187.624    7336.7404   -38524.365   -125.43177   -192.83508   -177.94656   -5.5136577           48           48          148 
  254000    205.79478    -31074.29    7360.6085   -38434.898   -107.74278   -65.244109   -147.21009   -110.77412           48           48          148 
  255000    205.23457   -31172.079    7340.5714   -38512.651   -77.561479   -108.10608   -97.676428   -26.901931           48           48          148 
  256000    207.73776   -31148.578    7430.1024    -38578.68    51.493856    49.454978   -89.288525    194.31511           48           48          148 
  257000    203.61762   -31559.377    7282.7385   -38842.116   -39.176014    75.138657   -136.69611   -55.970585           48           48          148 
  258000    204.39835   -31292.892    7310.6625   -38603.554   -30.470674   -20.275974   -119.88326    48.747207           48           48          148 
  259000    206.67073   -31264.537    7391.9383   -38656.475   -69.562275   -7.3508847   -125.18471   -76.151232           48           48          148 
  260000    208.02484   -31252.426    7440.3702   -38692.796    37.046292    202.97261   -126.33018    34.496446           48           48          148 
  261000    201.69268   -31429.335    7213.8895   -38643.225     -49.0538    13.478069   -110.48506   -50.154413           48           48          148 
  262000     205.1859   -31284.276    7338.8307   -38623.107   -40.018853   -28.135503    -206.8021    114.88104           48           48          148 
  263000    208.34204    -31007.99    7451.7157   -38459.705   -3.6142312   -105.37367   -110.76914    205.30011           48           48          148 
  264000    204.54197   -31185.199    7315.7994   -38500.998   -100.74234   -188.56967    -137.3367    23.679347           48           48          148 
  265000    209.29047   -31016.209    7485.6379   -38501.847   -77.189275   -133.55657   -78.220166   -19.791088           48           48          148 
  266000    205.98477   -31290.358    7367.4035   -38657.761    -139.8991   -123.78562   -131.78113   -164.13056           48           48          148 
  267000    208.11402   -31203.322    7443.5599   -38646.882   -27.642261    32.233169   -178.28976    63.129803           48           48          148 
  268000    203.09503   -31438.151     7264.047   -38702.198   -54.758287    31.768424     16.89568   -212.93897           48           48          148 
  269000    203.31226   -31280.217    7271.8168   -38552.034   -67.136554   -220.71037    72.871696   -53.570989           48           48          148 
  270000    203.73103   -31320.502    7286.7947   -38607.297   -35.473173   -122.41895   -31.699558     47.69899           48           48          148 
  271000    204.47241   -31187.421    7313.3116   -38500.733   -23.086606    101.85726   -100.98907   -70.128008           48           48          148 
  272000    203.35085   -31466.916    7273.1968   -38740.113   -144.73144   -165.93556    -111.3825   -156.87627           48           48          148 
  273000    203.99418   -31369.271    7296.2068   -38665.478   -86.739835    28.406808    -337.6945    49.068189           48           48          148 
  274000    206.26333   -31232.349    7377.3668   -38609.715    10.885414   -111.04906    49.393939    94.311361           48           48          148 
  275000    206.43053    -31250.92     7383.347   -38634.267    25.794193    37.704892   -50.289662     89.96735           48           48          148 
  276000     203.4778   -31199.236    7277.7376   -38476.973   -285.46992   -408.53181   -128.70317   -319.17479           48           48          148 
  277000    204.39756   -31297.781    7310.6345   -38608.415   -164.40114    -230.8838   -146.95288   -115.36675           48           48          148 
  278000    206.10437   -31219.706    7371.6814   -38591.388   -21.656155    7.8206772   -145.55293    72.763784           48           48          148 
  279000    207.65347   -31134.492    7427.0875    -38561.58   -121.42632   -328.02089    108.91582    -145.1739           48           48          148 
  280000    204.01069   -31405.834    7296.7974   -38702.631   -14.534128   -76.056522    49.535665   -17.081527           48           48          148 
  281000    207.50499   -31131.783    7421.7771    -38553.56   -53.531921    23.594102   -136.61259   -47.577275           48           48          148 
  282000     201.3965   -31255.979    7203.2963   -38459.276   -126.35257   -208.92472   -111.72587   -58.407132           48           48          148 
  283000    208.17627   -31284.065    7445.7866   -38729.852    66.143359    163.95407   -15.356858    49.832869           48           48          148 
  284000    203.84051   -31629.373    7290.7104   -38920.084   -13.188254   -6.8074996   -248.31834    215.56108           48           48          148 
  285000    205.32307   -31427.676    7343.7368   -38771.412   -39.747295   -173.83447    -107.0108    161.60339           48           48          148 
  286000    204.18076    -31580.98    7302.8803    -38883.86   -58.093341   -57.039395   -52.660211   -64.580418           48           48          148 
  287000    205.52154   -31232.212    7350.8355   -38583.048   -187.75052   -117.85287   -279.97018   -165.42849           48           48          148 
  288000    206.51677   -31285.023    7386.4317   -38671.455    23.901698   0.41956703   -61.637265    132.92279           48           48          148 
  289000    205.80724   -31531.055     7361.054   -38892.109   -85.998816   -3.2742978   -18.025171   -236.69698           48           48          148 
  290000    204.00095   -31268.474     7296.449   -38564.923   -43.493077    -79.25421   -90.414835    39.189813           48           48          148 
  291000    203.78804   -31277.422    7288.8338   -38566.256      23.8751  -0.29051428    47.646664    24.269149           48           48          148 
  292000    203.03812   -31385.432    7262.0115   -38647.443    8.6041738    67.023281    7.7552181   -48.965978           48           48          148 
  293000    204.85515    -31329.13    7327.0008   -38656.131   -47.506848   -78.741163   -76.983038    13.203657           48           48          148 
  294000    202.66838   -31484.262    7248.7874   -38733.049   -75.253923   -158.17298   -36.929986   -30.658805           48           48          148 
  295000    203.66079   -31180.566    7284.2824   -38464.848     17.34653   -70.048365   -95.475172    217.56313           48           48          148 
  296000    205.48384   -31320.935    7349.4869   -38670.421   -37.619651   -143.65127   -19.112895    49.905213           48           48          148 
  297000    204.10906   -31314.184    7300.3155     -38614.5    28.202923    16.565895    -89.53022     157.5731           48           48          148 
  298000    200.33043   -31376.168    7165.1665   -38541.334   -83.488903   -38.500018   -150.15984   -61.806853           48           48          148 
  299000    205.87277   -31136.485    7363.3978   -38499.882   -70.741477   -71.610327   -136.11996   -4.4941456           48           48          148 
  300000     207.3869   -31098.148    7417.5532   -38515.701   -37.479343   -42.801204   -78.570026    8.9332028           48           48          148 
  301000    203.75507   -31166.295    7287.6546    -38453.95   -47.174311   -175.66183   -27.615782    61.754676           48           48          148 
  302000    205.58676   -31197.737    7353.1682   -38550.906   -126.78508   -201.05901   -73.492357   -105.80387           48           48          148 
  303000    206.80185   -31304.084    7396.6281   -38700.712   -102.51197   -267.84337   -85.545597    45.853058           48           48          148 
  304000    204.10611    -31341.41    7300.2101   -38641.621   -29.556071   -9.3186192   -94.227709    14.878115           48           48          148 
  305000    205.33885   -31506.112    7344.3013   -38850.414   -24.736775    5.9748644     16.37105   -96.556238           48           48          148 
  306000    204.28922   -31414.311    7306.7593   -38721.071   -118.25002    -80.05431   -168.25962   -106.43614           48           48          148 
  307000    205.85897   -31347.895    7362.9043   -38710.799    -40.95024    37.764192   -25.857426   -134.75749           48           48          148 
  308000    203.60832   -31335.069    7282.4059   -38617.475    73.979535    22.351221    144.67127    54.916118           48           48          148 
  309000    200.22265   -31735.928    7161.3114   -38897.239   -75.810894   -70.658987   -41.338137   -115.43556           48           48          148 
  310000    204.89463   -31372.612    7328.4129   -38701.025   -12.028979   -41.172338   -69.218804    74.304206           48           48          148 
  311000    203.72379   -31334.409    7286.5356   -38620.945   -58.112232    117.47436   -104.18386    -187.6272           48           48          148 
  312000    204.73911   -31381.497    7322.8503   -38704.347   -136.54677   -235.14059   -133.41561   -41.084097           48           48          148 
  313000    203.35174   -31235.223    7273.2288   -38508.452    -5.123739   -185.48396    25.784398    144.32834           48           48          148 
  314000    208.01835   -31178.821     7440.138   -38618.959    74.155334   -5.2673843    60.900481    166.83291           48           48          148 
  315000    204.10226   -31290.822    7300.0726   -38590.894    -21.72296    64.304963     -110.017   -19.456841           48           48          148 
  316000    204.70878   -31214.638    7321.7657   -38536.404   -60.365673   -44.439299   -129.49639   -7.1613328           48           48          148 
  317000    200.90963   -31391.788    7185.8826   -38577.671   -11.961792   -88.225778    28.871675    23.468726           48           48          148 
  318000    205.68816   -31214.102     7356.795   -38570.897   -76.885194   -106.16502   -65.838729   -58.651836           48           48          148 
  319000    205.14787   -31214.132    7337.4706   -38551.603   -8.7170881    36.632581   -117.47228    54.688434           48           48          148 
  320000    205.47732   -31223.453    7349.2539   -38572.707   -112.67269    -26.88969   -205.41032   -105.71806           48           48          148 
  321000    206.69276    -31347.15    7392.7263   -38739.876      64.0042    8.4927271     154.9832    28.536677           48           48          148 
  322000    206.67962   -31289.767    7392.2561   -38682.023    92.840413   -86.539221    115.46037    249.60009           48           48          148 
  323000    204.34747   -31484.417    7308.8427    -38793.26   -167.01593   -127.60856   -236.15856   -137.28068           48           48          148 
  324000    205.63991   -31146.279    7355.0693   -38501.348   -131.51291   -197.77512   -69.062852   -127.70075           48           48          148 
  325000    204.91011   -31331.641    7328.9668   -38660.608   -90.755039   -61.226086   -101.86282   -109.17621           48           48          148 
  326000     205.4155    -31271.32    7347.0426   -38618.362   -98.706038   -241.51108   -11.302447   -43.304586           48           48          148 
  327000    206.38267   -31235.278    7381.6353   -38616.913     9.852615   -88.417041    38.747196     79.22769           48           48          148 
  328000    207.83845   -31200.784    7433.7036   -38634.488   -147.82701   -243.40989   -50.660667   -149.41047           48           48          148 
  329000    203.88654   -31306.081    7292.3568   -38598.438   -128.91807   -188.65593   -156.38208   -41.716198           48           48          148 
  330000    204.55348   -31217.058     7316.211   -38533.269   -37.679092   -174.81456    15.722526    46.054759           48           48          148 
  331000    206.45266   -31098.901    7384.1384   -38483.039   -92.329209   -134.74884   -54.960839    -87.27795           48           48          148 
  332000    205.04458   -31278.839    7333.7761   -38612.615   -53.183132   -153.18974   -80.332867    73.973212           48           48          148 
  333000    202.50208   -31418.139    7242.8391   -38660.978   -35.784756    134.38121   -146.49041   -95.245064           48           48          148 
  334000    204.52355   -31193.329    7315.1407    -38508.47   -161.42193   -91.853725   -277.45963   -114.95244           48           48          148 
  335000    205.09569   -31289.936    7335.6043    -38625.54   -54.641898   -134.04155    4.1388822   -34.023029           48           48          148 
  336000    204.81719   -31227.284     7325.643   -38552.927     39.30071    107.90023    44.119848   -34.117949           48           48          148 
  337000    205.99979   -31316.707     7367.941   -38684.648    17.765641    20.474053   -179.39555    212.21842           48           48          148 
  338000    206.44684   -31114.162    7383.9303   -38498.092    34.171785    203.50707   -181.95115    80.959439           48           48          148 
  339000    208.71597   -31040.631    7465.0897    -38505.72   -90.992079   -137.81807   -12.549215   -122.60895           48           48          148 
  340000    205.00975   -31273.985    7332.5303   -38606.515   -79.088963   -124.17783    -111.0946   -1.9944644           48           48          148 
  341000    205.96043   -31170.392    7366.5331   -38536.925   -79.967969   -229.85228   -127.20605    117.15442           48           48          148 
  342000    205.86441   -31349.364    7363.0987   -38712.462   -206.02594   -33.661287    -231.6311   -352.78543           48           48          148 
  343000    204.48196   -31177.601     7313.653   -38491.254   -6.6701007   -79.429349    38.861542    20.557505           48           48          148 
  344000    206.61479    -31130.59    7389.9374   -38520.527   -121.29361   -106.11326   -136.69081   -121.07676           48           48          148 
  345000    202.72429   -31259.646     7250.787   -38510.433   -51.694261   -21.084932   -123.50965   -10.488202           48           48          148 
  346000    203.30013   -31360.243    7271.3829   -38631.626   -24.084295   -95.352142    78.428896   -55.329638           48           48          148 
  347000    201.54195    -31305.36    7208.4985   -38513.858   0.98729766    -92.44306     130.6749    -35.26995           48           48          148 
  348000    205.05566   -31346.547    7334.1724    -38680.72   -30.365946   -102.42127   -175.14612    186.46956           48           48          148 
  349000    206.09731   -31236.804    7371.4288   -38608.233   -197.95084   -210.03645   -305.62457   -78.191509           48           48          148 
  350000    205.07007   -31469.028    7334.6877   -38803.716   -93.405796    -148.3018   -92.126392   -39.789197           48           48          148 
  351000    207.51349   -31103.592    7422.0811   -38525.673   -33.787957   -86.788112    3.9758805    -18.55164           48           48          148 
  352000    204.78467   -31171.901    7324.4799   -38496.381    -58.34677   -11.253326   -38.521225   -125.26576           48           48          148 
  353000    203.95807   -31214.909    7294.9151   -38509.824    66.095965    139.80988    -47.32731    105.80533           48           48          148 
  354000    207.34034   -31096.171    7415.8879   -38512.059   -109.02494   -217.74756   -206.96918    97.641911           48           48          148 
  355000    202.01451    -31483.93    7225.4004   -38709.331   -182.46305   -100.54824   -336.57624   -110.26468           48           48          148 
  356000    206.86182    -31157.22    7398.7729   -38555.993   -55.139035   -155.37737   -153.95807    143.91834           48           48          148 
  357000    202.97762   -31425.942    7259.8476   -38685.789   -98.283273   -155.62554    -70.35928   -68.864999           48           48          148 
  358000    204.55664   -31205.778    7316.3242   -38522.102   -161.95447   -224.81965   -146.56471   -114.47905           48           48          148 
  359000    204.90662   -31219.322    7328.8417   -38548.164    25.527223    23.566642    18.769377     34.24565           48           48          148 
  360000    204.38482   -31057.577    7310.1788   -38367.756    40.679565    57.399606    65.254183  -0.61509454           48           48          148 
  361000    205.32695   -31045.552    7343.8757   -38389.428   -137.60136   -93.252074   -243.48462   -76.067393           48           48          148 
  362000     205.5115   -31061.125    7350.4765   -38411.601   -98.476473   -95.483401     -151.404    -48.54202           48           48          148 
  363000     203.7388   -31271.573    7287.0726   -38558.645   -121.94849   -30.244293   -195.67246   -139.92872           48           48          148 
  364000    203.71297     -31197.7    7286.1488   -38483.849   -218.30843   -250.97391    -347.9298   -56.021583           48           48          148 
  365000    205.48863    -31181.86    7349.6583   -38531.518   -92.725808   -95.007749   -219.07692    35.907246           48           48          148 
  366000    203.53008   -31291.426    7279.6075   -38571.034   -40.191004    36.905897   -97.447037   -60.031873           48           48          148 
  367000    206.46586   -31196.127    7384.6107   -38580.737   -42.591633   -19.075527    84.334529    -193.0339           48           48          148 
  368000    208.55821   -31063.476    7459.4474   -38522.924   -80.541532   -145.43055   -96.964368   0.77032507           48           48          148 
  369000    203.81828   -31376.885    7289.9154     -38666.8    -16.10227    18.699392   -55.752149   -11.254054           48           48          148 
  370000    205.81829    -31374.93    7361.4492   -38736.379   -118.65778   -154.58925   -233.91925    32.535157           48           48          148 
  371000    201.35281   -31467.157    7201.7336   -38668.891   -63.400134   -31.621199    85.852409   -244.43161           48           48          148 
  372000    202.69726   -31440.557    7249.8201   -38690.377   -80.868442   -201.89296   -73.483189    32.770824           48           48          148 
  373000    206.08129   -31154.159     7370.856   -38525.015   -34.235858    44.164564   -25.446296   -121.42584           48           48          148 
  374000    207.25175     -31228.2    7412.7193   -38640.919    32.464044    147.88717   -192.55092    142.05588           48           48          148 
  375000    206.96676   -31289.578    7402.5264   -38692.104   -161.54134   -78.735561   -166.27812   -239.61034           48           48          148 
  376000    204.62705   -31121.082    7318.8425   -38439.924    61.087609    59.365973    7.7378046    116.15905           48           48          148 
  377000    205.20118   -31157.476    7339.3773   -38496.853   -173.28584   -398.81344     12.45569   -133.49976           48           48          148 
  378000     207.5987   -30998.441    7425.1288    -38423.57   -37.172266   -109.16717    7.2832495   -9.6328806           48           48          148 
  379000    204.39542    -31278.26    7310.5576   -38588.818   -47.655573   -170.67361   -14.439163     42.14605           48           48          148 
  380000    205.73677    -31204.49    7358.5336   -38563.024     12.10482   -73.254321   -27.020608    136.58939           48           48          148 
  381000    205.77459   -31340.833    7359.8863    -38700.72   -103.59351   -51.757836   -29.056785   -229.96592           48           48          148 
  382000     207.9745   -31245.182    7438.5698   -38683.752   -72.676685   -135.64706   -109.92209    27.539093           48           48          148 
  383000    206.43187   -31033.404    7383.3951   -38416.799    122.45678    115.50671    59.489235    192.37438           48           48          148 
  384000     203.9839   -31178.839    7295.8392   -38474.678   -37.335473    -146.7807    2.9566301    31.817648           48           48          148 
  385000    205.02456   -31285.026      7333.06   -38618.086   -190.72864   -255.96678   -73.534935   -242.68419           48           48          148 
  386000    204.16943   -31106.756    7302.4748   -38409.231   -92.457917    102.84352   -198.46419   -181.75308           48           48          148 
  387000    207.15443   -31048.967    7409.2387   -38458.205   -54.584724    40.824875   -71.778128   -132.80092           48           48          148 
  388000     203.1032   -31393.895    7264.3392   -38658.234    8.0072049   -37.212933    70.690125   -9.4555776           48           48          148 
  389000    204.95627   -31348.636    7330.6177   -38679.253    48.995931    125.80371   -136.16502    157.34911           48           48          148 
  390000    204.66162   -31463.207    7320.0788   -38783.286    -135.8669   -227.96167   -111.02007   -68.618949           48           48          148 
  391000    202.33543   -31383.124    7236.8787   -38620.003     91.27637    82.133118    88.034375    103.66162           48           48          148 
  392000    203.78005   -31141.916    7288.5479   -38430.464    -25.66742   -37.338635   -20.648271   -19.015355           48           48          148 
  393000    204.48621   -31196.988    7313.8051   -38510.793   -125.24714   -278.32595    123.04349   -220.45896           48           48          148 
  394000    204.56939   -31457.762    7316.7803   -38774.543   -61.896951   -231.84456    39.118889    7.0348165           48           48          148 
  395000     206.5043    -31273.85    7385.9855   -38659.835    73.047369    102.02103    19.923718    97.197355           48           48          148 
  396000    206.47461   -31308.162    7384.9238   -38693.085   -159.13699   -218.25944   -69.310495   -189.84103           48           48          148 
  397000    203.72283   -31337.856    7286.5015   -38624.358   -162.38979   -121.26682   -96.236648    -269.6659           48           48          148 
  398000     205.0972   -31212.098    7335.6582   -38547.756   -232.77402   -296.89347    -216.7954   -184.63318           48           48          148 
  399000      202.712   -31459.168    7250.3474   -38709.515    69.607076   -73.038227    120.91249    160.94697           48           48          148 
  400000    203.63507   -31195.507    7283.3625   -38478.869   -16.348617   -0.4179881    26.695147    -75.32301           48           48          148 
  401000    201.09941   -31313.322    7192.6702   -38505.992   -20.654241   -45.736299   -8.4055065    -7.820918           48           48          148 
  402000    205.00933   -31163.699    7332.5154   -38496.214   -35.538268   -147.44042    63.111338   -22.285725           48           48          148 
  403000    207.68561   -31041.236    7428.2372   -38469.473    9.0473497    -174.9498    63.213742    138.87811           48           48          148 
  404000    203.78208   -31194.446    7288.6205   -38483.067   -67.798617   -116.82341   -1.4043409   -85.168101           48           48          148 
  405000    206.52431   -30936.364    7386.7014   -38323.065   -35.732784    34.623042   -124.80998   -17.011412           48           48          148 
  406000    208.60451   -31055.797    7461.1032     -38516.9   -35.450811   -50.525055    72.893065   -128.72044           48           48          148 
  407000    210.62877   -30994.627    7533.5045   -38528.131     89.52522    80.082229    64.081985    124.41145           48           48          148 
  408000    205.56737   -31153.364    7352.4747   -38505.839    163.28563    0.1354006    232.27125    257.45025           48           48          148 
  409000    207.21682   -31121.196      7411.47   -38532.666    13.473613   -93.983077    242.44868   -108.04477           48           48          148 
  410000    203.41192   -31301.514    7275.3811   -38576.896   -83.461738   -158.63727   -138.88788    47.139934           48           48          148 
  411000    206.83068   -30994.228     7397.659   -38391.887   -98.313167   -186.13328     -120.163     11.35678           48           48          148 
  412000    203.04564   -31437.909    7262.2807    -38700.19   -96.640496   -222.57593    -159.6973    92.351745           48           48          148 
  413000     204.5991   -31178.741    7317.8428   -38496.583    27.115768    -24.75956    124.45685   -18.349985           48           48          148 
  414000    202.90126   -31289.769    7257.1166   -38546.885   -148.13856   -66.470739   -118.78043   -259.16449           48           48          148 
  415000    208.80637   -31086.565    7468.3232   -38554.889   -144.94967   -171.87982   -150.90044   -112.06875           48           48          148 
  416000    205.77751    -31264.03    7359.9907   -38624.021   -111.58082   -138.09088   -30.099451   -166.55213           48           48          148 
  417000    201.34159   -31376.669    7201.3324   -38578.002   -23.394315    33.745305    -199.8885    95.960246           48           48          148 
  418000    204.31902   -31147.868    7307.8254   -38455.694   -65.228767   -237.51826    7.1033404     34.72862           48           48          148 
  419000    206.71276   -31291.019    7393.4414   -38684.461    71.950817    23.498288    105.81265    86.541512           48           48          148 
  420000    205.55988   -31155.368    7352.2066   -38507.574   -169.03714   -79.720136   -218.23756   -209.15372           48           48          148 
  421000    207.96805    -31124.52    7438.3393   -38562.859   -81.978601   -202.62693    94.640274   -137.94915           48           48          148 
  422000    206.91025   -31239.059    7400.5049   -38639.564    163.28937    101.79367    142.10727    245.96716           48           48          148 
  423000    203.13969   -31267.647    7265.6443   -38533.291   -113.09738   -178.83866   -64.852423   -95.601047           48           48          148 
  424000    204.32487   -31166.202    7308.0345   -38474.236   -61.427235   -146.06447   -49.387292    11.170055           48           48          148 
  425000    206.46594   -31426.628    7384.6137   -38811.241    11.195983   -60.349523    61.298435    32.639037           48           48          148 
  426000    202.99958   -31284.945    7260.6332   -38545.579    118.91099    127.92111    68.616848      160.195           48           48          148 
  427000    203.95143   -31389.492    7294.6777   -38684.169    66.484447    200.44999    59.952987    -60.94964           48           48          148 
  428000    202.63718    -31657.82    7247.6712   -38905.491   -123.72076   -191.00952    -112.7266   -67.426155           48           48          148 
  429000     202.9745   -31600.882    7259.7363   -38860.618    28.332888   -211.50949    181.31716    115.19099           48           48          148 
  430000    207.73881   -31274.801      7430.14   -38704.941    46.725761    212.08137   -14.582259   -57.321833           48           48          148 
  431000    205.38111   -31349.552    7345.8126   -38695.364   -60.953617    6.1004384   -84.578668   -104.38262           48           48          148 
  432000    202.56477   -31253.874    7245.0815   -38498.956    2.5656394    12.116823   -144.95568    140.53577           48           48          148 
  433000    207.95183   -31192.049    7437.7591   -38629.808   -143.32713   -72.225708   -159.31398   -198.44169           48           48          148 
  434000    203.56549   -31305.116    7280.8737    -38585.99   -38.753501    20.975951    57.289165   -194.52562           48           48          148 
  435000    199.17826   -31603.562    7123.9569   -38727.519    -31.87852   -71.001882   -256.19499    231.56131           48           48          148 
  436000    204.92177   -31131.484    7329.3835   -38460.868    -139.7898   -130.22729   -209.49343   -79.648667           48           48          148 
  437000    207.25662    -31047.85    7412.8936   -38460.744   -30.380225   -18.248009    4.8823884   -77.775053           48           48          148 
  438000     204.4983   -31180.537    7314.2376   -38494.774     58.39453    88.676072    32.097885    54.409632           48           48          148 
  439000    203.46268    -31319.94    7277.1968   -38597.137    97.487761    71.843146    9.2889329     211.3312           48           48          148 
  440000    204.56467   -31156.064    7316.6114   -38472.676   -7.0738317      100.865   -226.51396    104.42747           48           48          148 
  441000    205.75651   -31137.841    7359.2395   -38497.081   -261.01082   -415.85113   -301.39344   -65.787889           48           48          148 
  442000     204.8076   -31284.332    7325.3003   -38609.632    47.626372    210.72933   -117.99861    50.148399           48           48          148 
  443000      204.785   -31241.486    7324.4917   -38565.978   -84.616217   -62.731401   -93.311604   -97.805646           48           48          148 
  444000    206.31194   -31046.141    7379.1055   -38425.247   -2.8258429   -74.755253    118.75715   -52.479421           48           48          148 
  445000    203.45543   -31334.889    7276.9376   -38611.827    36.304017    162.45851   -153.04094    99.494481           48           48          148 
  446000    204.10488   -31419.689     7300.166   -38719.855   -35.365727    45.622438   -63.487058   -88.232562           48           48          148 
  447000    202.52837   -31300.826    7243.7796   -38544.606    15.708225   -13.653406   -34.981259    95.759341           48           48          148 
  448000    204.43728   -31355.114     7312.055   -38667.169    8.3425361   -94.331367   -50.317262    169.67624           48           48          148 
  449000    203.16766   -31322.618    7266.6447   -38589.263   -40.589588   -292.19935    73.150659    97.279929           48           48          148 
  450000    206.06835   -31174.666    7370.3929   -38545.058   -53.007807   -154.59297   -90.801425    86.370975           48           48          148 
  451000    207.37677   -31081.925    7417.1909   -38499.116   -83.404726   -106.95867   -186.88413    43.628617           48           48          148 
  452000     205.6868   -31224.627    7356.7463   -38581.374    97.795492    121.88591    135.78436    35.716209           48           48          148 
  453000    201.50445   -31504.626    7207.1574   -38711.783    102.77023    129.74908   -43.665525    222.22715           48           48          148 
  454000    207.31777   -31164.006    7415.0809   -38579.087    98.983337    12.215473    42.440978    242.29356           48           48          148 
  455000    202.00939   -31472.876    7225.2173   -38698.094   -63.787619    90.970827   -163.23699   -119.09669           48           48          148 
  456000    204.30755    -31142.19    7307.4151   -38449.606   -64.370471   -5.0203416   -28.546235   -159.54484           48           48          148 
  457000    202.61884   -31390.816    7247.0153   -38637.831    66.839949    -51.40243    116.03776    135.88452           48           48          148 
  458000    205.44339   -31370.556    7348.0402   -38718.596    8.0005507   -59.281091    76.189928    7.0928152           48           48          148 
  459000    204.79901   -31124.843    7324.9927   -38449.835   -117.06078   -169.10318   -203.48626    21.407102           48           48          148 
  460000    205.92453   -30963.729    7365.2491   -38328.978   -133.37037   -119.04222   -186.26147   -94.807432           48           48          148 
  461000    204.57624   -31267.173    7317.0253   -38584.198   -97.528059    -113.5161   -160.19518   -18.872895           48           48          148 
  462000    205.19291   -31089.666    7339.0815   -38428.748   -53.205617    133.96186   -249.34233   -44.236381           48           48          148 
  463000    203.41471   -31308.616    7275.4811   -38584.097   -37.324905   -94.576799   -169.87098    152.47306           48           48          148 
  464000    206.34481   -31152.528    7380.2813   -38532.809    -43.39541    68.720303   -73.956007   -124.95053           48           48          148 
  465000     202.6073   -31292.845    7246.6027   -38539.448   -73.616839   -27.054254   -168.57442   -25.221838           48           48          148 
  466000    205.33311   -31333.719     7344.096   -38677.815   -51.148812   -45.119309   -286.28106    177.95393           48           48          148 
  467000    205.68069   -31138.494    7356.5279   -38495.022    142.53896    92.716714     208.4307    126.46945           48           48          148 
  468000    202.76931   -31407.811    7252.3971   -38660.208   -24.504749    14.522873   -127.58958    39.552461           48           48          148 
  469000    202.98432   -31242.744    7260.0873   -38502.832   -106.76029    48.711698   -226.76654   -142.22602           48           48          148 
  470000    204.47035   -31103.931    7313.2376   -38417.168    9.6753742   -55.043781    24.882064    59.187839           48           48          148 
  471000    205.02851   -31240.968    7333.2014    -38574.17   -102.29023   -249.89124   -167.17017    110.19071           48           48          148 
  472000    201.47088   -31347.669    7205.9567   -38553.626    44.659133     77.06377    87.716237   -30.802607           48           48          148 
  473000    205.50861   -31319.965    7350.3728   -38670.337   -47.439627     48.66151   -79.807693    -111.1727           48           48          148 
  474000    204.16307   -31133.286    7302.2474   -38435.533   -82.781983    -14.14529   -474.11844    239.91778           48           48          148 
  475000     204.8478   -31251.312    7326.7381   -38578.051   -137.78904   -180.39025   -146.83102   -86.145837           48           48          148 
  476000    202.99854   -31330.772     7260.596   -38591.368   -90.557693   -82.958128   -237.82958    49.114624           48           48          148 
  477000     207.3232   -31177.663    7415.2751   -38592.938   -114.73542    -127.0126   -83.956191   -133.23746           48           48          148 
  478000    203.97414   -31538.007      7295.49   -38833.496     15.60487   -54.435648   -70.340605    171.59086           48           48          148 
  479000    200.39125   -31539.354    7167.3417   -38706.696   -45.475692   -30.688183    37.948294   -143.68719           48           48          148 
  480000    203.48107   -31400.884    7277.8543   -38678.738     -96.7585   -186.94586   -19.970834   -83.358808           48           48          148 
  481000    204.93379   -31333.943    7329.8136   -38663.757   -30.166097    49.300352   -3.2216094   -136.57703           48           48          148 
  482000    207.34422   -31062.938    7416.0269   -38478.965   0.41422465   -52.765486    1.6139518    52.394208           48           48          148 
  483000    205.12009   -31304.952     7336.477   -38641.429   -43.038681   -131.27393   -15.598237    17.756121           48           48          148 
  484000    205.53103    -31387.17    7351.1748   -38738.344   -33.528561   -154.25528   -33.344927    87.014526           48           48          148 
  485000    203.89467   -31215.877    7292.6476   -38508.524    21.001849   -34.993473    124.89753    -26.89851           48           48          148 
  486000    208.26749   -31169.752    7449.0491   -38618.801    25.127711   -28.977953   -54.399355    158.76044           48           48          148 
  487000    203.63553   -31288.581    7283.3791   -38571.961   -88.442343    29.560652   -202.68593   -92.201753           48           48          148 
  488000    205.10754   -31074.291     7336.028   -38410.319   -78.533947   -146.36533   -72.946816   -16.289697           48           48          148 
  489000    206.29873   -31264.342     7378.633   -38642.975   -116.26156   -54.384037   -305.48571    11.085071           48           48          148 
[...]
 2140000    203.85989   -31363.895    7291.4037   -38655.299    5.8946936    -58.82398   -45.223304    121.73137           48           48          148 
 2141000    203.02658   -31430.984    7261.5988   -38692.583    -57.12682   -39.274516    -11.77871   -120.32723           48           48          148 
 2142000    206.31508   -31276.944    7379.2178   -38656.162   -17.339507   -159.63499    142.99075   -35.374289           48           48          148 
 2143000    203.35078   -31542.348    7273.1943   -38815.542    -37.42395   -220.66902    16.127493    92.269678           48           48          148 
 2144000    201.59278   -31326.322    7210.3164   -38536.638   -176.82665   -471.00379    -134.3879    74.911739           48           48          148 
 2145000    205.55438   -31214.004      7352.01   -38566.014   -190.78515   -170.14946   -271.21725   -130.98875           48           48          148 
 2146000    205.13526   -31218.584    7337.0195   -38555.604   -152.63717   -235.50528   -141.51823   -80.887989           48           48          148 
 2147000    204.25411   -31180.431    7305.5037   -38485.935   -225.10944   -164.46535   -324.24541   -186.61757           48           48          148 
 2148000    205.95733   -31213.248    7366.4222    -38579.67    96.763135    28.344659    201.78798    60.156768           48           48          148 
 2149000    204.80099   -31383.789    7325.0636   -38708.852    5.9505681    5.8072288   -34.461429    46.505905           48           48          148 
 2150000    206.69311   -31392.068    7392.7387   -38784.807    45.158878    66.964616   -126.47632    194.98834           48           48          148 
 2151000    208.01729   -31289.765    7440.1002   -38729.865   -4.4288752    34.151508   -35.099783   -12.338351           48           48          148 
 2152000    206.05898   -31067.341    7370.0579   -38437.399   -169.14065   -41.547836   -306.89182   -158.98229           48           48          148 
 2153000    207.33527   -31092.231    7415.7067   -38507.938   -11.311489     70.44732   -11.514263   -92.867523           48           48          148 
 2154000    200.97306   -31440.297    7188.1512   -38628.448   -156.65869   -306.17347   -43.729119   -120.07349           48           48          148 
 2155000    201.23583   -31227.967    7197.5496   -38425.517    -133.7503    34.029651   -221.98844   -213.29211           48           48          148 
 2156000    204.80313     -31304.2    7325.1404    -38629.34   -20.537694   -51.239101   -227.16913    216.79515           48           48          148 
 2157000    203.91441   -31304.869    7293.3536   -38598.223    21.022104   -77.010792    -1.474431    141.55153           48           48          148 
 2158000    205.94092   -31210.627    7365.8351   -38576.463    93.146093    28.681239    26.088228    224.66881           48           48          148 
 2159000    204.94816   -31264.893    7330.3275   -38595.221   -25.518787   -97.790635   -171.97315    193.20742           48           48          148 
 2160000     201.7842   -31500.481    7217.1631   -38717.644    -118.9552   -264.03557   -64.616586   -28.213434           48           48          148 
 2161000    204.72534   -31260.446    7322.3581   -38582.804     3.053636   -104.41558   -73.435019     187.0115           48           48          148 
 2162000    207.48673   -31223.414    7421.1238   -38644.537    3.7372424   -99.418382    36.168038    74.462071           48           48          148 
 2163000    204.91324   -31090.133    7329.0784   -38419.212   -206.69303   -291.15926   -169.20397   -159.71584           48           48          148 
 2164000    206.72663   -30993.927    7393.9376   -38387.865    -68.35833    -131.7448    -11.26295   -62.067242           48           48          148 
 2165000    207.48811   -31184.082    7421.1731   -38605.255   -80.314502   -98.090182   -75.046815   -67.806509           48           48          148 
 2166000    204.95925   -31319.002    7330.7242   -38649.726   -115.21943   -182.04381    -78.16006   -85.454431           48           48          148 
 2167000    208.07234   -31113.865    7442.0693   -38555.934   -185.63563   -371.32251   -328.78842    143.20404           48           48          148 
 2168000    204.28359   -31386.393     7306.558   -38692.951    -63.99863    4.8573146   -108.22208   -88.631121           48           48          148 
 2169000    207.11789   -31233.922    7407.9315   -38641.854    21.690036   -162.46485   -30.595326    258.13028           48           48          148 
 2170000    202.12605   -31574.714      7229.39   -38804.104   -83.619691   -200.10464   -63.958165    13.203733           48           48          148 
 2171000    205.11103   -31231.625    7336.1529   -38567.778   -50.266752    12.403434   -27.635802   -135.56789           48           48          148 
 2172000    204.17568   -31366.197    7302.6983   -38668.896   -52.850242    -102.4726   -47.307239   -8.7708847           48           48          148 
 2173000    203.20494   -31405.618    7267.9782   -38673.596   -123.54454   -93.308542   -135.47143   -141.85364           48           48          148 
 2174000    204.93459   -31282.869    7329.8421   -38612.711    6.5907361   -62.467051   -15.533406    97.772666           48           48          148 
 2175000    207.29351   -31445.756    7414.2131   -38859.969   -113.87947   -247.37961    -184.5158    90.257009           48           48          148 
 2176000    200.55646   -31435.718    7173.2507   -38608.969   -7.9614009   -35.506429   -172.15469    183.77692           48           48          148 
 2177000    203.24794   -31559.553    7269.5163   -38829.069    44.892559     94.03275    41.048867  -0.40393868           48           48          148 
 2178000    206.91776   -31293.887    7400.7737   -38694.661    19.481853    7.8970463    57.479411   -6.9308987           48           48          148 
 2179000    208.08378   -31200.642    7442.4784   -38643.121   -93.670791   -269.01709     44.43116   -56.426438           48           48          148 
 2180000    205.55061   -31106.913    7351.8753   -38458.788    35.749914     3.256435     100.8385    3.1548029           48           48          148 
 2181000    208.63422   -31212.959    7462.1657   -38675.125   -76.421729   -189.33976   -138.99988    99.074454           48           48          148 
 2182000    202.86183   -31310.067    7255.7064   -38565.773   -25.002677   -350.58171    133.01411    142.55957           48           48          148 
 2183000    203.00031   -31431.128    7260.6592   -38691.787   -59.500112   -142.48001   -96.469551    60.449219           48           48          148 
 2184000    203.16672   -31216.459    7266.6113    -38483.07    12.609339    114.13976   -82.108553    5.7968087           48           48          148 
 2185000    206.09325   -31236.989    7371.2835   -38608.273   -50.188984  -0.57735048   -148.85435   -1.1352532           48           48          148 
 2186000    205.17177   -31453.492    7338.3252   -38791.817   -108.97276   -165.03503   -199.09373    37.210469           48           48          148 
 2187000    204.16707   -31513.055    7302.3905   -38815.446    57.701905    81.719218    8.2352221    83.151274           48           48          148 
 2188000    203.61698   -31305.301    7282.7155   -38588.016   -71.482352   -125.24075   -75.512339   -13.693968           48           48          148 
 2189000    205.21675   -31220.373    7339.9341   -38560.307   -16.559665    19.183549    47.014434   -115.87698           48           48          148 
 2190000    207.14746   -31332.705    7408.9894   -38741.694   -143.75889   -139.42143   -155.34598   -136.50927           48           48          148 
 2191000    204.69985   -31348.679    7321.4463   -38670.125   -113.63855   -224.09853   -135.09988    18.282758           48           48          148 
 2192000    204.95633   -31148.913    7330.6199   -38479.533   -107.71089   -193.56458   -107.12758   -22.440514           48           48          148 
 2193000    206.95596   -31082.734      7402.14   -38484.874   -83.239543   -194.78978   -154.47171    99.542853           48           48          148 
 2194000     206.3764   -31229.599    7381.4111    -38611.01    56.220571   -267.25283    128.18328    307.73127           48           48          148 
 2195000    205.78122    -31021.82    7360.1234   -38381.944    0.3351494   -67.652535    159.94294   -91.284961           48           48          148 
 2196000    204.82274   -31302.499    7325.8417   -38628.341     56.21925    155.66021   -122.18081    135.17835           48           48          148 
 2197000      204.147   -31340.027    7301.6728   -38641.699   -174.21913   -245.29604    3.0116104   -280.37295           48           48          148 
 2198000    205.88457   -31268.567    7363.8198   -38632.387   -11.635787    144.06352    -195.2003    16.229418           48           48          148 
 2199000    202.70965   -31413.131    7250.2634   -38663.395   -166.00566   -119.63292   -176.30272   -202.08134           48           48          148 
 2200000    204.80426   -31383.198    7325.1805   -38708.379  0.038089665   -233.22697    79.254601    154.08664           48           48          148 
 2201000    207.53868   -31511.996    7422.9821   -38934.978     32.97829    4.3953676    57.004331    37.535172           48           48          148 
 2202000    206.15511   -31109.941    7373.4962   -38483.437    8.8977605   -79.129835    46.701665    59.121451           48           48          148 
 2203000    203.33758   -31140.757    7272.7221   -38413.479   -224.40381   -215.98984   -53.548966   -403.67261           48           48          148 
 2204000     203.0393   -31247.857    7262.0539   -38509.911   -164.10372    -196.4894   -198.06775   -97.754004           48           48          148 
 2205000    202.37971   -31536.908    7238.4623   -38775.371   -12.304074   -56.075333   -112.09487    131.25799           48           48          148 
 2206000    204.85834   -31413.635     7327.115    -38740.75    49.485342   -69.933114    83.424164    134.96497           48           48          148 
 2207000    206.48777   -31219.478    7385.3943   -38604.872   -15.382259   -66.831841    27.059428   -6.3743619           48           48          148 
 2208000    205.20004   -31116.217    7339.3364   -38455.553   -169.97832   -2.2953307   -91.633433   -416.00619           48           48          148 
 2209000    203.83796   -31300.302    7290.6192   -38590.921   -82.765741   -179.32473    -83.54136    14.568866           48           48          148 
 2210000    201.14339   -31475.641    7194.2432   -38669.884   -70.427703   -39.412886   -44.647729   -127.22249           48           48          148 
 2211000    206.49135   -31032.819    7385.5225   -38418.341    90.070347   -73.385327     214.8243    128.77207           48           48          148 
 2212000    205.65416   -31432.772    7355.5787   -38788.351    -14.18537   -41.964205    13.922747   -14.514652           48           48          148 
 2213000    207.31054   -31274.909    7414.8222   -38689.731    65.882762    124.97708    105.20953   -32.538323           48           48          148 
 2214000    204.15315   -31331.744    7301.8927   -38633.636   -121.39991   -27.938103   -196.85452   -139.40712           48           48          148 
 2215000    203.45948   -31282.857    7277.0824    -38559.94    49.722316   -28.453907   -6.2989515    183.91981           48           48          148 
 2216000    206.84607   -31152.954    7398.2096   -38551.163   -88.016374   -233.19332    8.7232285   -39.579027           48           48          148 
 2217000    203.75599   -31331.936    7287.6875   -38619.623   -135.26018   -344.60303   -148.83727    87.659764           48           48          148 
 2218000    205.77306   -31127.417    7359.8313   -38487.249   -204.47027   -147.89922   -276.50505   -189.00655           48           48          148 
 2219000    205.02405   -31225.335     7333.042   -38558.377   -92.408744   -193.79329   -95.492987    12.060043           48           48          148 
 2220000    205.58349   -31027.989    7353.0511    -38381.04   -4.2200772   -13.972515   -180.61756    181.92984           48           48          148 
 2221000    206.56237   -31319.518    7388.0626    -38707.58   -5.7384581   -178.01364  0.056669764    160.74159           48           48          148 
 2222000    205.04623    -31229.55    7333.8353   -38563.385   -97.473319    39.635259   -312.24383   -19.811391           48           48          148 
 2223000    203.99294   -31383.859    7296.1624   -38680.022     -94.8727   -195.61363   -167.83134    78.826874           48           48          148 
 2224000    207.22814   -31324.562    7411.8751   -38736.437    139.35442    180.10683   -34.651191    272.60761           48           48          148 
 2225000    205.21088   -31278.766    7339.7243   -38618.491   -50.023861   -161.18735   -42.488257    53.604027           48           48          148 
 2226000     204.7396   -31295.574    7322.8678   -38618.442   -116.46565   -235.83335   -72.012276   -41.551337           48           48          148 
 2227000    207.24248   -31247.532     7412.388    -38659.92   -109.41787   -107.05901   -111.61862   -109.57598           48           48          148 
 2228000     204.3248   -31375.746    7308.0319   -38683.778   -46.625777   -69.865245   -93.540457    23.528371           48           48          148 
 2229000    204.56755   -31332.749    7316.7143   -38649.464   -47.566973   -120.05708   -18.990881   -3.6529562           48           48          148 
 2230000    205.91471   -31134.993    7364.8979   -38499.891   -45.517497    114.98283   -136.16229   -115.37303           48           48          148 
 2231000    204.62136   -31227.956    7318.6389   -38546.595   -60.871894   -116.03366    102.66209   -169.24411           48           48          148 
 2232000    202.49148   -31185.839    7242.4602     -38428.3    43.767704   -73.343575    -84.37832    289.02501           48           48          148 
 2233000    203.92299   -31220.602    7293.6605   -38514.262   -98.935231     -51.0433   -124.50034   -121.26205           48           48          148 
 2234000    203.75417   -31338.625    7287.6224   -38626.248    18.994348   -17.503104   -94.857295    169.34344           48           48          148 
 2235000    205.66027   -31139.824    7355.7975   -38495.621    91.849498   -2.1259631    133.65934    144.01511           48           48          148 
 2236000    205.94226   -31037.963    7365.8832   -38403.846   -5.0656722    25.086762   -153.36072    113.07694           48           48          148 
 2237000    205.15275   -31059.066    7337.6451   -38396.711   -22.160015   -38.707199   -88.896406    61.123559           48           48          148 
 2238000    201.91274   -31197.178    7221.7606   -38418.939    5.1668633   -182.90404      143.704    54.700626           48           48          148 
 2239000     202.1068    -31252.21    7228.7014   -38480.912    60.077374     136.5984    7.0690297    36.564697           48           48          148 
 2240000    204.67301   -31370.022    7320.4861   -38690.508   -16.105843       -92.34    68.364102   -24.341632           48           48          148 
 2241000    205.53768   -31272.382    7351.4129   -38623.795    12.314546   -184.38775   -19.046833    240.37822           48           48          148 
 2242000    203.99415   -31223.825    7296.2058   -38520.031     30.46615   -146.56401    28.728422    209.23404           48           48          148 
 2243000    205.14756   -31148.144    7337.4594   -38485.603   -13.711238   -104.29698   0.15649731    63.006768           48           48          148 
 2244000    206.42609   -31092.236    7383.1884   -38475.425     99.37046    181.63244    108.32297    8.1559627           48           48          148 
 2245000    203.48509   -31365.471    7277.9983   -38643.469    35.465858   -25.484128   -6.2490161    138.13072           48           48          148 
 2246000    205.86804   -31225.279    7363.2286   -38588.507    4.5157747    116.93898   -65.978469   -37.413184           48           48          148 
 2247000     207.0033   -31344.594    7403.8332   -38748.427    63.748969    278.71968   -26.291176   -61.181592           48           48          148 
 2248000    205.63331   -31429.693    7354.8329   -38784.526   -61.151889    2.5401527   -21.020429   -164.97539           48           48          148 
 2249000    205.04082   -31331.839    7333.6416   -38665.481   -234.65858   -224.15159   -189.78657   -290.03759           48           48          148 
 2250000     207.8644   -31416.416    7434.6318   -38851.048     99.36807    50.145834   -13.359755    261.31813           48           48          148 
 2251000    204.16515   -31383.586    7302.3217   -38685.907   -245.59804   -214.64205   -272.46918   -249.68289           48           48          148 
 2252000    204.97854    -31150.39     7331.414   -38481.804   -92.207231   -270.53438   -107.83803    101.75072           48           48          148 
 2253000     203.6897   -31125.957    7285.3163   -38411.273   -24.318079   -72.465329   -132.48311    131.99421           48           48          148 
 2254000    204.62379   -31285.409    7318.7259   -38604.135   -54.710741   -26.475817   -49.093868   -88.562537           48           48          148 
 2255000    202.32169   -31207.273    7236.3872   -38443.661   -130.99995   -200.96695   -93.978084   -98.054823           48           48          148 
 2256000    205.83938   -31290.599    7362.2037   -38652.802   -156.82176   -187.20675   -132.27521   -150.98331           48           48          148 
 2257000    202.78016   -31545.268    7252.7852   -38798.053    105.93032    -20.26847    65.233456    272.82597           48           48          148 
 2258000    202.72347   -31269.912    7250.7576    -38520.67   -71.395388   -259.56871    124.05839   -78.675845           48           48          148 
 2259000    204.76961   -31305.803    7323.9415   -38629.744   -25.767188    -69.48263    166.08976    -173.9087           48           48          148 
 2260000    201.21161   -31306.988    7196.6835   -38503.671   -144.05299   -223.50485   -177.02705   -31.627071           48           48          148 
 2261000    207.76852   -31203.909    7431.2025   -38635.111   -64.683168   -1.7375146   -217.12089    24.808903           48           48          148 
 2262000    205.11309   -31337.994    7336.2265   -38674.221   -56.613193    54.915651   -255.79934    31.044113           48           48          148 
 2263000    204.37467   -31427.945    7309.8158   -38737.761    11.351205    23.195421    97.279569   -86.421374           48           48          148 
 2264000    204.79764   -31116.548    7324.9439   -38441.492   -182.76662   -232.20529   -150.25297   -165.84161           48           48          148 
 2265000    204.10306   -31084.444    7300.1009   -38384.545     83.78085    230.33561   -31.343713     52.35065           48           48          148 
 2266000    209.58659   -30935.684    7496.2289   -38431.913   -135.58671   -289.21083   -100.75669   -16.792602           48           48          148 
 2267000    202.85049   -31173.484    7255.3008   -38428.785    7.0478186    51.087794   -137.99883    108.05449           48           48          148 
 2268000    204.85088   -31252.616    7326.8481   -38579.465   -82.349182   -163.63059   -185.08058    101.66362           48           48          148 
 2269000    206.84349   -31221.664    7398.1174   -38619.781   -18.659769    29.110745   -29.830853   -55.259199           48           48          148 
 2270000     208.